# vtk DataFile Version 2.0
Electric field MPM output
ASCII
DATASET UNSTRUCTURED_GRID
POINTS 6404 double
0.250000 0.250000 0.000000 
0.250000 0.750000 0.000000 
0.750000 0.250000 0.000000 
0.750000 0.750000 0.000000 
1.250000 0.250000 0.000000 
1.250000 0.750000 0.000000 
1.750000 0.250000 0.000000 
1.750000 0.750000 0.000000 
2.250000 0.250000 0.000000 
2.250000 0.750000 0.000000 
2.750000 0.250000 0.000000 
2.750000 0.750000 0.000000 
3.250000 0.250000 0.000000 
3.250000 0.750000 0.000000 
3.750000 0.250000 0.000000 
3.750000 0.750000 0.000000 
4.250000 0.250000 0.000000 
4.250000 0.750000 0.000000 
4.750000 0.250000 0.000000 
4.750000 0.750000 0.000000 
5.250000 0.250000 0.000000 
5.250000 0.750000 0.000000 
5.750000 0.250000 0.000000 
5.750000 0.750000 0.000000 
6.250000 0.250000 0.000000 
6.250000 0.750000 0.000000 
6.750000 0.250000 0.000000 
6.750000 0.750000 0.000000 
7.250000 0.250000 0.000000 
7.250000 0.750000 0.000000 
7.750000 0.250000 0.000000 
7.750000 0.750000 0.000000 
8.250000 0.250000 0.000000 
8.250000 0.750000 0.000000 
8.750000 0.250000 0.000000 
8.750000 0.750000 0.000000 
9.250000 0.250000 0.000000 
9.250000 0.750000 0.000000 
9.750000 0.250000 0.000000 
9.750000 0.750000 0.000000 
10.250000 0.250000 0.000000 
10.250000 0.750000 0.000000 
10.750000 0.250000 0.000000 
10.750000 0.750000 0.000000 
11.250000 0.250000 0.000000 
11.250000 0.750000 0.000000 
11.750000 0.250000 0.000000 
11.750000 0.750000 0.000000 
12.250000 0.250000 0.000000 
12.250000 0.750000 0.000000 
12.750000 0.250000 0.000000 
12.750000 0.750000 0.000000 
13.250000 0.250000 0.000000 
13.250000 0.750000 0.000000 
13.750000 0.250000 0.000000 
13.750000 0.750000 0.000000 
14.250000 0.250000 0.000000 
14.250000 0.750000 0.000000 
14.750000 0.250000 0.000000 
14.750000 0.750000 0.000000 
15.250000 0.250000 0.000000 
15.250000 0.750000 0.000000 
15.750000 0.250000 0.000000 
15.750000 0.750000 0.000000 
16.250000 0.250000 0.000000 
16.250000 0.750000 0.000000 
16.750000 0.250000 0.000000 
16.750000 0.750000 0.000000 
17.250000 0.250000 0.000000 
17.250000 0.750000 0.000000 
17.750000 0.250000 0.000000 
17.750000 0.750000 0.000000 
18.250000 0.250000 0.000000 
18.250000 0.750000 0.000000 
18.750000 0.250000 0.000000 
18.750000 0.750000 0.000000 
19.250000 0.250000 0.000000 
19.250000 0.750000 0.000000 
19.750000 0.250000 0.000000 
19.750000 0.750000 0.000000 
20.250000 0.250000 0.000000 
20.250000 0.750000 0.000000 
20.750000 0.250000 0.000000 
20.750000 0.750000 0.000000 
21.250000 0.250000 0.000000 
21.250000 0.750000 0.000000 
21.750000 0.250000 0.000000 
21.750000 0.750000 0.000000 
22.250000 0.250000 0.000000 
22.250000 0.750000 0.000000 
22.750000 0.250000 0.000000 
22.750000 0.750000 0.000000 
23.250000 0.250000 0.000000 
23.250000 0.750000 0.000000 
23.750000 0.250000 0.000000 
23.750000 0.750000 0.000000 
24.250000 0.250000 0.000000 
24.250000 0.750000 0.000000 
24.750000 0.250000 0.000000 
24.750000 0.750000 0.000000 
25.250000 0.250000 0.000000 
25.250000 0.750000 0.000000 
25.750000 0.250000 0.000000 
25.750000 0.750000 0.000000 
26.250000 0.250000 0.000000 
26.250000 0.750000 0.000000 
26.750000 0.250000 0.000000 
26.750000 0.750000 0.000000 
27.250000 0.250000 0.000000 
27.250000 0.750000 0.000000 
27.750000 0.250000 0.000000 
27.750000 0.750000 0.000000 
28.250000 0.250000 0.000000 
28.250000 0.750000 0.000000 
28.750000 0.250000 0.000000 
28.750000 0.750000 0.000000 
29.250000 0.250000 0.000000 
29.250000 0.750000 0.000000 
29.750000 0.250000 0.000000 
29.750000 0.750000 0.000000 
30.250000 0.250000 0.000000 
30.250000 0.750000 0.000000 
30.750000 0.250000 0.000000 
30.750000 0.750000 0.000000 
31.250000 0.250000 0.000000 
31.250000 0.750000 0.000000 
31.750000 0.250000 0.000000 
31.750000 0.750000 0.000000 
32.250000 0.250000 0.000000 
32.250000 0.750000 0.000000 
32.750000 0.250000 0.000000 
32.750000 0.750000 0.000000 
33.250000 0.250000 0.000000 
33.250000 0.750000 0.000000 
33.750000 0.250000 0.000000 
33.750000 0.750000 0.000000 
34.250000 0.250000 0.000000 
34.250000 0.750000 0.000000 
34.750000 0.250000 0.000000 
34.750000 0.750000 0.000000 
35.250000 0.250000 0.000000 
35.250000 0.750000 0.000000 
35.750000 0.250000 0.000000 
35.750000 0.750000 0.000000 
36.250000 0.250000 0.000000 
36.250000 0.750000 0.000000 
36.750000 0.250000 0.000000 
36.750000 0.750000 0.000000 
37.250000 0.250000 0.000000 
37.250000 0.750000 0.000000 
37.750000 0.250000 0.000000 
37.750000 0.750000 0.000000 
38.250000 0.250000 0.000000 
38.250000 0.750000 0.000000 
38.750000 0.250000 0.000000 
38.750000 0.750000 0.000000 
39.250000 0.250000 0.000000 
39.250000 0.750000 0.000000 
39.750000 0.250000 0.000000 
39.750000 0.750000 0.000000 
40.250000 0.250000 0.000000 
40.250000 0.750000 0.000000 
40.750000 0.250000 0.000000 
40.750000 0.750000 0.000000 
41.250000 0.250000 0.000000 
41.250000 0.750000 0.000000 
41.750000 0.250000 0.000000 
41.750000 0.750000 0.000000 
0.250000 1.250000 0.000000 
0.250000 1.750000 0.000000 
0.750000 1.250000 0.000000 
0.750000 1.750000 0.000000 
1.250000 1.250000 0.000000 
1.250000 1.750000 0.000000 
1.750000 1.250000 0.000000 
1.750000 1.750000 0.000000 
2.250000 1.250000 0.000000 
2.250000 1.750000 0.000000 
2.750000 1.250000 0.000000 
2.750000 1.750000 0.000000 
3.250000 1.250000 0.000000 
3.250000 1.750000 0.000000 
3.750000 1.250000 0.000000 
3.750000 1.750000 0.000000 
4.250000 1.250000 0.000000 
4.250000 1.750000 0.000000 
4.750000 1.250000 0.000000 
4.750000 1.750000 0.000000 
5.250000 1.250000 0.000000 
5.250000 1.750000 0.000000 
5.750000 1.250000 0.000000 
5.750000 1.750000 0.000000 
6.250000 1.250000 0.000000 
6.250000 1.750000 0.000000 
6.750000 1.250000 0.000000 
6.750000 1.750000 0.000000 
7.250000 1.250000 0.000000 
7.250000 1.750000 0.000000 
7.750000 1.250000 0.000000 
7.750000 1.750000 0.000000 
8.250000 1.250000 0.000000 
8.250000 1.750000 0.000000 
8.750000 1.250000 0.000000 
8.750000 1.750000 0.000000 
9.250000 1.250000 0.000000 
9.250000 1.750000 0.000000 
9.750000 1.250000 0.000000 
9.750000 1.750000 0.000000 
10.250000 1.250000 0.000000 
10.250000 1.750000 0.000000 
10.750000 1.250000 0.000000 
10.750000 1.750000 0.000000 
11.250000 1.250000 0.000000 
11.250000 1.750000 0.000000 
11.750000 1.250000 0.000000 
11.750000 1.750000 0.000000 
12.250000 1.250000 0.000000 
12.250000 1.750000 0.000000 
12.750000 1.250000 0.000000 
12.750000 1.750000 0.000000 
13.250000 1.250000 0.000000 
13.250000 1.750000 0.000000 
13.750000 1.250000 0.000000 
13.750000 1.750000 0.000000 
14.250000 1.250000 0.000000 
14.250000 1.750000 0.000000 
14.750000 1.250000 0.000000 
14.750000 1.750000 0.000000 
15.250000 1.250000 0.000000 
15.250000 1.750000 0.000000 
15.750000 1.250000 0.000000 
15.750000 1.750000 0.000000 
16.250000 1.250000 0.000000 
16.250000 1.750000 0.000000 
16.750000 1.250000 0.000000 
16.750000 1.750000 0.000000 
17.250000 1.250000 0.000000 
17.250000 1.750000 0.000000 
17.750000 1.250000 0.000000 
17.750000 1.750000 0.000000 
18.250000 1.250000 0.000000 
18.250000 1.750000 0.000000 
18.750000 1.250000 0.000000 
18.750000 1.750000 0.000000 
19.250000 1.250000 0.000000 
19.250000 1.750000 0.000000 
19.750000 1.250000 0.000000 
19.750000 1.750000 0.000000 
20.250000 1.250000 0.000000 
20.250000 1.750000 0.000000 
20.750000 1.250000 0.000000 
20.750000 1.750000 0.000000 
21.250000 1.250000 0.000000 
21.250000 1.750000 0.000000 
21.750000 1.250000 0.000000 
21.750000 1.750000 0.000000 
22.250000 1.250000 0.000000 
22.250000 1.750000 0.000000 
22.750000 1.250000 0.000000 
22.750000 1.750000 0.000000 
23.250000 1.250000 0.000000 
23.250000 1.750000 0.000000 
23.750000 1.250000 0.000000 
23.750000 1.750000 0.000000 
24.250000 1.250000 0.000000 
24.250000 1.750000 0.000000 
24.750000 1.250000 0.000000 
24.750000 1.750000 0.000000 
25.250000 1.250000 0.000000 
25.250000 1.750000 0.000000 
25.750000 1.250000 0.000000 
25.750000 1.750000 0.000000 
26.250000 1.250000 0.000000 
26.250000 1.750000 0.000000 
26.750000 1.250000 0.000000 
26.750000 1.750000 0.000000 
27.250000 1.250000 0.000000 
27.250000 1.750000 0.000000 
27.750000 1.250000 0.000000 
27.750000 1.750000 0.000000 
28.250000 1.250000 0.000000 
28.250000 1.750000 0.000000 
28.750000 1.250000 0.000000 
28.750000 1.750000 0.000000 
29.250000 1.250000 0.000000 
29.250000 1.750000 0.000000 
29.750000 1.250000 0.000000 
29.750000 1.750000 0.000000 
30.250000 1.250000 0.000000 
30.250000 1.750000 0.000000 
30.750000 1.250000 0.000000 
30.750000 1.750000 0.000000 
31.250000 1.250000 0.000000 
31.250000 1.750000 0.000000 
31.750000 1.250000 0.000000 
31.750000 1.750000 0.000000 
32.250000 1.250000 0.000000 
32.250000 1.750000 0.000000 
32.750000 1.250000 0.000000 
32.750000 1.750000 0.000000 
33.250000 1.250000 0.000000 
33.250000 1.750000 0.000000 
33.750000 1.250000 0.000000 
33.750000 1.750000 0.000000 
34.250000 1.250000 0.000000 
34.250000 1.750000 0.000000 
34.750000 1.250000 0.000000 
34.750000 1.750000 0.000000 
35.250000 1.250000 0.000000 
35.250000 1.750000 0.000000 
35.750000 1.250000 0.000000 
35.750000 1.750000 0.000000 
36.250000 1.250000 0.000000 
36.250000 1.750000 0.000000 
36.750000 1.250000 0.000000 
36.750000 1.750000 0.000000 
37.250000 1.250000 0.000000 
37.250000 1.750000 0.000000 
37.750000 1.250000 0.000000 
37.750000 1.750000 0.000000 
38.250000 1.250000 0.000000 
38.250000 1.750000 0.000000 
38.750000 1.250000 0.000000 
38.750000 1.750000 0.000000 
39.250000 1.250000 0.000000 
39.250000 1.750000 0.000000 
39.750000 1.250000 0.000000 
39.750000 1.750000 0.000000 
40.250000 1.250000 0.000000 
40.250000 1.750000 0.000000 
40.750000 1.250000 0.000000 
40.750000 1.750000 0.000000 
41.250000 1.250000 0.000000 
41.250000 1.750000 0.000000 
41.750000 1.250000 0.000000 
41.750000 1.750000 0.000000 
0.250000 2.250000 0.000000 
0.250000 2.750000 0.000000 
0.750000 2.250000 0.000000 
0.750000 2.750000 0.000000 
1.250000 2.250000 0.000000 
1.250000 2.750000 0.000000 
1.750000 2.250000 0.000000 
1.750000 2.750000 0.000000 
[...]
POINT_DATA 6404
SCALARS phi FLOAT 1
LOOKUP_TABLE default
0.005658
0.005657
0.016975
0.016971
0.028296
0.028290
0.039622
0.039614
0.050958
0.050947
0.062303
0.062290
0.073663
0.073648
0.085038
0.085020
0.096432
0.096411
0.107845
0.107822
0.119283
0.119258
0.130745
0.130717
0.142237
0.142206
0.153757
0.153724
0.165312
0.165276
0.176900
0.176862
0.188526
0.188487
0.200191
0.200150
0.211899
0.211855
0.223649
0.223604
0.235445
0.235398
0.247287
0.247238
0.259177
0.259128
0.271117
0.271067
0.283107
0.283056
0.295147
0.295096
0.307239
0.307188
0.319382
0.319331
0.331574
0.331524
0.343817
0.343768
0.356107
0.356060
0.368444
0.368400
0.380825
0.380783
0.393249
0.393210
0.405709
0.405674
0.418207
0.418175
0.430734
0.430707
0.443291
0.443268
0.455868
0.455849
0.468465
0.468452
0.481073
0.481065
0.493691
0.493688
0.506309
0.506312
0.518927
0.518935
0.531535
0.531548
0.544132
0.544151
0.556709
0.556732
0.569266
0.569293
0.581793
0.581825
0.594291
0.594326
0.606751
0.606790
0.619175
0.619217
0.631556
0.631600
0.643893
0.643940
0.656183
0.656232
0.668426
0.668476
0.680618
0.680669
0.692761
0.692812
0.704853
0.704904
0.716893
0.716944
0.728883
0.728933
0.740823
0.740872
0.752713
0.752762
0.764555
0.764602
0.776351
0.776396
0.788101
0.788145
0.799809
0.799850
0.811474
0.811513
0.823100
0.823138
0.834688
0.834724
0.846243
0.846276
0.857763
0.857794
0.869255
0.869283
0.880717
0.880742
0.892155
0.892178
0.903568
0.903589
0.914962
0.914980
0.926337
0.926352
0.937697
0.937710
0.949042
0.949053
0.960378
0.960386
0.971704
0.971710
0.983025
0.983029
0.994342
0.994343
0.005655
0.005651
0.016964
0.016953
0.028278
0.028260
0.039597
0.039571
0.050925
0.050893
0.062263
0.062223
0.073616
0.073569
0.084983
0.084929
0.096370
0.096308
0.107776
0.107707
0.119207
0.119130
0.130661
0.130577
0.142145
0.142054
0.153659
0.153560
0.165206
0.165101
0.176788
0.176675
0.188408
0.188289
0.200066
0.199941
0.211768
0.211637
0.223513
0.223376
0.235304
0.235162
0.247141
0.246995
0.259028
0.258879
0.270965
0.270813
0.282953
0.282799
0.294993
0.294838
0.307085
0.306930
0.319229
0.319075
0.331424
0.331273
0.343670
0.343523
0.355966
0.355823
0.368310
0.368174
0.380698
0.380570
0.393131
0.393012
0.405602
0.405494
0.418111
0.418015
0.430651
0.430567
0.443221
0.443151
0.455813
0.455757
0.468425
0.468385
0.481049
0.481024
0.493683
0.493675
0.506317
0.506325
0.518951
0.518976
0.531575
0.531615
0.544187
0.544243
0.556779
0.556849
0.569349
0.569433
0.581889
0.581985
0.594398
0.594506
0.606869
0.606988
0.619302
0.619430
0.631690
0.631826
0.644034
0.644177
0.656330
0.656477
0.668576
0.668727
0.680771
0.680925
0.692915
0.693070
0.705007
0.705162
0.717047
0.717201
0.729035
0.729187
0.740972
0.741121
0.752859
0.753005
0.764696
0.764838
0.776487
0.776624
0.788232
0.788363
0.799934
0.800059
0.811592
0.811711
0.823212
0.823325
0.834794
0.834899
0.846341
0.846440
0.857855
0.857946
0.869339
0.869423
0.880793
0.880870
0.892224
0.892293
0.903630
0.903692
0.915017
0.915071
0.926384
0.926431
0.937737
0.937777
0.949075
0.949107
0.960403
0.960429
0.971722
0.971740
0.983036
0.983047
0.994345
0.994349
0.005646
0.005640
0.016939
0.016920
0.028236
0.028206
0.039538
0.039495
0.050849
0.050795
0.062170
0.062104
0.073506
0.073427
0.084856
0.084765
0.096225
0.096122
0.107614
0.107499
0.119028
0.118900
0.130465
0.130325
0.141932
0.141780
0.153429
0.153264
0.164960
0.164783
0.176525
0.176337
0.188130
0.187930
0.199773
0.199563
0.211461
0.211241
0.223193
0.222963
0.234972
0.234733
0.246799
0.246553
0.258678
0.258425
0.270608
0.270350
0.282591
0.282330
0.294629
0.294365
0.306721
0.306457
0.318867
0.318606
0.331068
0.330811
0.343324
0.343072
0.355631
0.355388
0.367990
0.367758
0.380397
0.380178
0.392851
0.392648
0.405347
0.405161
0.417884
0.417718
0.430454
0.430310
0.443056
0.442936
0.455682
0.455587
0.468331
0.468262
0.480991
0.480950
0.493664
0.493650
0.506336
0.506350
0.519009
0.519050
0.531669
0.531738
0.544318
0.544413
0.556944
0.557064
0.569546
0.569690
0.582116
0.582282
0.594653
0.594839
0.607149
0.607352
0.619603
0.619822
0.632010
0.632242
0.644369
0.644612
0.656676
0.656928
0.668932
0.669189
0.681133
0.681394
0.693279
0.693543
0.705371
0.705635
0.717409
0.717670
0.729392
0.729650
0.741322
0.741575
0.753201
0.753447
0.765028
0.765267
0.776807
0.777037
0.788539
0.788759
0.800227
0.800437
0.811870
0.812070
0.823475
0.823663
0.835040
0.835217
0.846571
0.846736
0.858068
0.858220
0.869535
0.869675
0.880972
0.881100
0.892386
0.892501
0.903775
0.903878
0.915144
0.915235
0.926494
0.926573
0.937830
0.937896
0.949151
0.949205
0.960462
0.960505
0.971764
0.971794
0.983061
0.983080
0.994354
0.994360
0.005633
0.005625
0.016899
0.016874
0.028170
0.028128
0.039445
0.039386
0.050730
0.050654
0.062024
0.061931
0.073333
0.073223
0.084656
0.084529
0.095998
0.095854
0.107360
0.107198
0.118746
0.118567
0.130156
0.129960
0.141596
0.141382
0.153066
0.152834
0.164571
0.164322
0.176110
0.175844
0.187689
0.187408
0.199309
0.199011
0.210974
0.210661
0.222684
0.222357
0.234444
0.234104
0.246254
0.245903
0.258118
0.257757
0.270036
0.269667
0.282011
0.281636
0.294044
0.293665
0.306135
0.305755
0.318286
0.317907
0.330495
0.330122
0.342764
0.342399
0.355089
0.354736
0.367472
0.367134
0.379908
0.379589
0.392397
0.392100
0.404932
0.404660
0.417513
0.417270
0.430132
0.429920
0.442787
0.442611
0.455469
0.455329
0.468177
0.468075
0.480898
0.480837
0.493633
0.493612
0.506367
0.506388
0.519102
0.519163
0.531823
0.531925
0.544531
0.544671
0.557213
0.557389
0.569868
0.570080
0.582487
0.582730
0.595068
0.595340
0.607603
0.607900
0.620092
0.620411
0.632528
0.632866
0.644911
0.645264
0.657236
0.657601
0.669505
0.669878
0.681714
0.682093
0.693865
0.694245
0.705956
0.706335
0.717989
0.718364
0.729964
0.730333
0.741882
0.742243
0.753746
0.754097
0.765556
0.765896
0.777316
0.777643
0.789026
0.789339
0.800691
0.800989
0.812311
0.812592
0.823890
0.824156
0.835429
0.835678
0.846934
0.847166
0.858404
0.858618
0.869844
0.870040
0.881254
0.881433
0.892640
0.892802
0.904002
0.904146
0.915344
0.915471
0.926667
0.926777
0.937976
0.938069
0.949270
0.949346
0.960555
0.960614
0.971830
0.971872
0.983101
0.983126
0.994367
0.994375
0.005615
0.005604
0.016845
0.016813
0.028080
0.028026
0.039319
0.039244
0.050568
0.050471
0.061826
0.061707
0.073098
0.072957
0.084384
0.084221
0.095689
0.095504
0.107013
0.106805
0.118362
0.118131
0.129734
0.129481
0.141137
0.140861
0.152569
0.152270
0.164037
0.163715
0.175539
0.175195
0.187083
0.186717
0.198669
0.198281
0.210301
0.209892
0.221980
0.221552
0.233711
0.233265
0.245496
0.245033
0.257338
0.256860
0.269237
0.268748
0.281199
0.280700
0.293223
0.292717
0.305311
0.304803
0.317465
0.316957
0.329684
0.329182
0.341970
0.341477
0.354320
0.353842
0.366735
0.366276
0.379211
0.378776
0.391748
0.391342
0.404338
0.403966
0.416982
0.416649
0.429670
0.429379
0.442401
0.442158
0.455162
0.454970
0.467955
0.467815
0.480763
0.480679
0.493588
0.493560
0.506412
0.506440
0.519237
0.519321
0.532045
0.532185
0.544838
0.545030
0.557599
0.557842
0.570330
0.570621
0.583018
0.583351
0.595662
0.596034
0.608252
0.608658
0.620789
0.621224
0.633265
0.633724
0.645680
0.646158
0.658030
0.658523
0.670316
0.670818
0.682535
0.683043
0.694689
0.695197
0.706777
0.707283
0.718801
0.719300
0.730763
0.731252
0.742662
0.743140
0.754504
0.754967
0.766289
0.766735
0.778020
0.778448
0.789699
0.790108
0.801331
0.801719
0.812917
0.813283
0.824461
0.824805
0.835963
0.836285
0.847431
0.847730
0.858863
0.859139
0.870266
0.870519
0.881638
0.881869
0.892987
0.893195
0.904311
0.904496
0.915616
0.915779
0.926902
0.927043
0.938174
0.938293
0.949432
0.949529
0.960681
0.960756
0.971920
0.971974
0.983155
0.983187
0.994385
0.994396
0.005593
0.005580
0.016778
0.016739
0.027967
0.027903
0.039161
0.039070
0.050364
0.050247
0.061576
0.061432
0.072802
0.072631
0.084041
0.083843
0.095299
0.095073
0.106575
0.106322
0.117875
0.117594
0.129199
0.128890
0.140553
0.140215
0.151937
0.151569
0.163356
0.162959
0.174810
0.174385
0.186307
0.185854
0.197846
0.197364
0.209434
0.208925
0.221070
0.220536
0.232762
0.232203
0.244510
0.243928
0.256320
0.255718
0.268193
0.267572
0.280133
0.279499
0.292142
0.291496
0.304223
0.303572
0.316377
0.315724
0.328607
0.327958
0.340911
0.340272
0.353291
0.352668
0.365747
0.365146
0.378273
0.377703
0.390872
0.390338
0.403535
0.403044
0.416262
0.415821
0.429042
0.428657
0.441874
0.441551
0.454745
0.454488
0.467652
0.467466
0.480580
0.480467
0.493527
0.493489
0.506473
0.506511
0.519420
0.519533
0.532348
0.532534
0.545255
0.545512
0.558126
0.558449
0.570958
0.571343
0.583738
0.584179
0.596465
0.596956
0.609128
0.609662
0.621727
0.622297
0.634253
0.634854
0.646709
0.647332
0.659089
0.659728
0.671393
0.672042
0.683623
0.684276
0.695777
0.696428
0.707858
0.708504
0.719867
0.720501
0.731807
0.732428
0.743680
0.744282
0.755490
0.756072
0.767238
0.767797
0.778930
0.779464
0.790566
0.791075
0.802154
0.802636
0.813693
0.814146
0.825190
0.825615
0.836644
0.837041
0.848063
0.848431
0.859447
0.859785
0.870801
0.871110
0.882125
0.882406
0.893425
0.893678
0.904701
0.904927
0.915959
0.916157
0.927198
0.927369
0.938424
0.938568
0.949636
0.949753
0.960839
0.960930
0.972033
0.972097
0.983222
0.983261
0.994407
0.994420
0.005566
0.005551
0.016697
0.016652
0.027833
0.027757
0.038972
0.038866
0.050120
0.049984
0.061277
0.061109
0.072446
0.072247
0.083629
0.083398
0.094829
0.094565
0.106047
0.105750
0.117288
0.116957
0.128552
0.128187
0.139846
0.139446
0.151168
0.150733
0.162526
0.162055
0.173920
0.173413
0.185356
0.184814
0.196835
0.196257
0.208364
0.207752
0.219945
0.219298
0.231584
0.230904
0.243282
0.242572
0.255047
0.254309
0.266880
0.266116
0.278788
0.278003
0.290772
0.289969
0.302838
0.302024
0.314987
0.314166
0.327223
0.326404
0.339547
0.338735
0.351960
0.351165
0.364462
0.363692
0.377050
0.376316
0.389726
0.389035
0.402480
0.401843
0.415313
0.414739
0.428213
0.427710
0.441178
0.440755
0.454191
0.453853
0.467251
0.467006
0.480335
0.480186
0.493445
0.493395
0.506555
0.506605
0.519665
0.519814
0.532749
0.532994
0.545809
0.546147
0.558822
0.559245
0.571787
0.572290
0.584687
0.585261
0.597520
0.598157
0.610274
0.610965
0.622950
0.623684
0.635538
0.636308
0.648040
0.648835
0.660453
0.661265
0.672777
0.673596
0.685013
0.685834
0.697162
0.697976
0.709228
0.710031
0.721212
0.721997
0.733120
0.733884
0.744953
0.745691
0.756718
0.757428
0.768416
0.769096
0.780055
0.780702
0.791636
0.792248
0.803165
0.803743
0.814644
0.815186
0.826080
0.826587
0.837474
0.837945
0.848832
0.849267
0.860154
0.860554
0.871448
0.871813
0.882712
0.883043
0.893953
0.894250
0.905171
0.905435
0.916371
0.916602
0.927554
0.927753
0.938723
0.938891
0.949880
0.950016
0.961028
0.961134
0.972167
0.972243
0.983303
0.983348
0.994434
0.994449
0.005535
0.005518
0.016604
0.016553
0.027677
0.027592
0.038754
0.038635
0.049839
0.049684
0.060931
0.060741
0.072035
0.071809
0.083151
0.082889
0.094283
0.093984
0.105433
0.105094
0.116603
0.116226
0.127796
0.127378
0.139017
0.138558
0.150265
0.149764
0.161548
0.161004
0.172866
0.172278
0.184227
0.183595
0.195630
0.194954
0.207085
0.206365
0.218592
0.217828
0.230161
0.229355
0.241792
0.240944
0.253496
0.252609
0.265273
0.264350
0.277133
0.276179
0.289077
0.288096
0.301115
0.300114
0.313248
0.312232
0.325483
0.324462
0.337821
0.336804
0.350267
0.349265
0.362820
0.361844
0.375480
0.374542
0.388247
0.387360
0.401113
0.400292
0.414080
0.413336
0.427131
0.426476
0.440266
0.439714
0.453464
0.453022
0.466723
0.466401
0.480014
0.479818
0.493338
0.493273
0.506662
0.506727
0.519986
0.520182
0.533277
0.533599
0.546536
0.546978
0.559734
0.560286
0.572869
0.573524
0.585920
0.586664
0.598887
0.599708
0.611753
0.612640
0.624520
0.625458
0.637180
0.638156
0.649733
0.650735
0.662179
0.663196
0.674517
0.675538
0.686752
0.687768
0.698885
0.699886
0.710923
0.711904
0.722867
0.723821
0.734727
0.735650
0.746504
0.747391
0.758208
0.759056
0.769839
0.770645
0.781408
0.782172
0.792915
0.793635
0.804370
0.805046
0.815773
0.816405
0.827134
0.827722
0.838452
0.838996
0.849735
0.850236
0.860983
0.861442
0.872204
0.872622
0.883397
0.883774
0.894567
0.894906
0.905717
0.906016
0.916849
0.917111
0.927965
0.928191
0.939069
0.939259
0.950161
0.950316
0.961246
0.961365
0.972323
0.972408
0.983396
0.983447
0.994465
0.994482
0.005500
0.005481
0.016500
0.016444
0.027503
0.027410
0.038509
0.038378
0.049522
0.049353
0.060542
0.060333
0.071572
0.071323
0.082612
0.082322
0.093668
0.093335
0.104737
0.104361
0.115827
0.115406
0.126936
0.126469
0.138071
0.137556
0.149231
0.148667
0.160425
0.159810
0.171651
0.170984
0.182919
0.182199
0.194229
0.193454
0.205590
0.204761
0.217004
0.216119
0.228481
0.227542
0.240023
0.239029
0.251643
0.250596
0.263340
0.262244
0.275130
0.273988
0.287013
0.285830
0.299004
0.297786
0.311102
0.309858
0.323322
0.322062
0.335663
0.334398
0.348135
0.346879
0.360739
0.359506
0.373477
0.372284
0.386349
0.385214
0.399351
0.398290
0.412481
0.411514
0.425722
0.424867
0.439075
0.438350
0.452510
0.451928
0.466028
0.465604
0.479590
0.479331
0.493197
0.493110
0.506803
0.506890
0.520410
0.520669
0.533972
0.534396
0.547490
0.548072
0.560925
0.561650
0.574278
0.575133
0.587519
0.588486
0.600649
0.601710
0.613651
0.614786
0.626523
0.627716
0.639261
0.640494
0.651865
0.653121
0.664337
0.665602
0.676678
0.677938
0.688898
0.690142
0.700996
0.702214
0.712987
0.714170
0.724870
0.726012
0.736660
0.737756
0.748357
0.749404
0.759977
0.760971
0.771519
0.772458
0.782996
0.783881
0.794410
0.795239
0.805771
0.806546
0.817081
0.817801
0.828349
0.829016
0.839575
0.840190
0.850769
0.851333
0.861929
0.862444
0.873064
0.873531
0.884173
0.884594
0.895263
0.895639
0.906332
0.906665
0.917388
0.917678
0.928428
0.928677
0.939458
0.939667
0.950478
0.950647
0.961491
0.961622
0.972497
0.972590
0.983500
0.983556
0.994500
0.994519
0.005462
0.005442
0.016386
0.016326
0.027313
0.027213
0.038242
0.038101
0.049177
0.048994
0.060116
0.059891
0.071064
0.070796
0.082021
0.081707
0.092989
0.092629
0.103970
0.103562
0.114967
0.114509
0.125981
0.125471
0.137017
0.136453
0.148075
0.147455
0.159163
0.158484
0.170281
0.169540
0.181437
0.180633
0.192632
0.191763
0.203878
0.202941
0.215174
0.214168
0.226534
0.225458
0.237959
0.236812
0.249465
0.248249
0.261053
0.259768
0.272742
0.271392
0.284532
0.283121
0.296445
0.294980
0.308480
0.306969
0.320659
0.319114
0.332982
0.331414
0.345465
0.343894
0.358110
0.356553
0.370927
0.369406
0.383915
0.382454
0.397072
0.395697
0.410399
0.409136
0.423878
0.422752
0.437507
0.436545
0.451250
0.450475
0.465108
0.464540
0.479028
0.478680
0.493009
0.492893
0.506991
0.507107
0.520972
0.521320
0.534892
0.535460
0.548750
0.549525
0.562493
0.563455
0.576122
0.577248
0.589601
0.590864
0.602928
0.604303
0.616085
0.617546
0.629073
0.630594
0.641890
0.643447
0.654535
0.656106
0.667018
0.668586
0.679341
0.680886
0.691520
0.693031
0.703555
0.705020
0.715468
0.716879
0.727258
0.728608
0.738947
0.740232
0.750535
0.751751
0.762041
0.763188
0.773466
0.774542
0.784826
0.785832
0.796122
0.797059
0.807368
0.808237
0.818563
0.819367
0.829719
0.830460
0.840837
0.841516
0.851925
0.852545
0.862983
0.863547
0.874019
0.874529
0.885033
0.885491
0.896030
0.896438
0.907011
0.907371
0.917979
0.918293
0.928936
0.929204
0.939884
0.940109
0.950823
0.951006
0.961758
0.961899
0.972687
0.972787
0.983614
0.983674
0.994538
0.994558
0.005422
0.005401
0.016265
0.016203
0.027110
0.027005
0.037957
0.037809
0.048807
0.048616
0.059661
0.059425
0.070520
0.070238
0.081386
0.081055
0.092259
0.091879
0.103142
0.102709
0.114037
0.113550
0.124944
0.124400
0.135868
0.135264
0.146811
0.146143
0.157777
0.157043
0.168768
0.167963
0.179792
0.178914
0.190850
0.189894
0.201954
0.200917
0.213104
0.211982
0.224316
0.223106
0.235589
0.234290
0.246945
0.245554
0.258384
0.256900
0.269930
0.268355
0.281583
0.279920
0.293374
0.291628
0.305302
0.303480
0.317398
0.315514
0.329663
0.327729
0.342127
0.340164
0.354789
0.352819
0.367672
0.365726
0.380776
0.378883
0.394108
0.392306
0.407667
0.405994
0.421437
0.419932
0.435417
0.434121
0.449561
0.448508
0.463869
0.463094
0.478267
0.477790
0.492756
0.492597
0.507244
0.507403
0.521733
0.522210
0.536131
0.536906
0.550439
0.551492
0.564583
0.565879
0.578563
0.580068
0.592333
0.594006
0.605892
0.607694
0.619224
0.621117
0.632328
0.634274
0.645211
0.647181
0.657873
0.659836
0.670337
0.672271
0.682602
0.684486
0.694698
0.696520
0.706626
0.708372
0.718417
0.720080
0.730070
0.731645
0.741616
0.743100
0.753055
0.754446
0.764411
0.765710
0.775684
0.776894
0.786896
0.788018
0.798046
0.799083
0.809150
0.810106
0.820208
0.821086
0.831232
0.832037
0.842223
0.842957
0.853189
0.853857
0.864132
0.864736
0.875056
0.875600
0.885963
0.886450
0.896858
0.897291
0.907741
0.908121
0.918614
0.918945
0.929480
0.929762
0.940339
0.940575
0.951193
0.951384
0.962043
0.962191
0.972890
0.972995
0.983735
0.983797
0.994578
0.994599
0.005380
0.005358
0.016139
0.016075
0.026899
0.026792
0.037660
0.037509
0.048422
0.048226
0.059186
0.058944
0.069952
0.069662
0.080720
0.080380
0.091493
0.091101
0.102270
0.101823
0.113054
0.112549
0.123845
0.123278
0.134646
0.134015
0.145459
0.144758
0.156288
0.155513
0.167134
0.166281
0.178006
0.177068
0.188903
0.187875
0.199837
0.198714
0.210809
0.209585
0.221836
0.220505
0.232918
0.231474
0.244078
0.242516
0.255316
0.253632
0.266664
0.264855
0.278121
0.276186
0.289727
0.287670
0.301481
0.299305
0.313430
0.311148
0.325573
0.323196
0.337959
0.335511
0.350587
0.348092
0.363501
0.360997
0.376700
0.374228
0.390210
0.387821
0.404030
0.401777
0.418153
0.416099
0.432578
0.430788
0.447247
0.445778
0.462161
0.461070
0.477213
0.476537
0.492404
0.492179
0.507596
0.507821
0.522787
0.523463
0.537839
0.538930
0.552753
0.554222
0.567422
0.569212
0.581847
0.583901
0.595970
0.598223
0.609790
0.612179
0.623300
0.625772
0.636499
0.639003
0.649413
0.651908
0.662041
0.664489
0.674427
0.676804
0.686570
0.688852
0.698519
0.700695
0.710273
0.712330
0.721879
0.723814
0.733336
0.735145
0.744684
0.746368
0.755922
0.757484
0.767082
0.768526
0.778164
0.779495
0.789191
0.790415
0.800163
0.801286
0.811097
0.812125
0.821994
0.822932
0.832866
0.833719
0.843712
0.844487
0.854541
0.855242
0.865354
0.865985
0.876155
0.876722
0.886946
0.887451
0.897730
0.898177
0.908507
0.908899
0.919280
0.919620
0.930048
0.930338
0.940814
0.941056
0.951578
0.951774
0.962340
0.962491
0.973101
0.973208
0.983861
0.983925
0.994620
0.994642
0.005337
0.005316
0.016012
0.015948
0.026686
0.026580
0.037359
0.037209
0.048031
0.047837
0.058702
0.058461
0.069372
0.069083
0.080041
0.079701
0.090708
0.090315
0.101375
0.100925
0.112041
0.111532
0.122708
0.122135
0.133378
0.132735
0.144049
0.143333
0.154728
0.153932
0.165413
0.164531
0.176111
0.175136
0.186824
0.185748
0.197560
0.196376
0.208322
0.207019
0.219124
0.217694
0.229968
0.228401
0.240878
0.239164
0.251855
0.249984
0.262933
0.260898
0.274115
0.271906
0.285449
0.283063
0.296935
0.294370
0.308638
0.305902
0.320559
0.317660
0.332768
0.329731
0.345268
0.342116
0.358132
0.354906
0.371361
0.368101
0.385020
0.381806
0.399107
0.396021
0.413639
0.410771
0.428614
0.426054
0.443976
0.441841
0.459726
0.458130
0.475701
0.474706
0.491900
0.491569
0.508100
0.508431
0.524299
0.525294
0.540274
0.541870
0.556024
0.558159
0.571386
0.573946
0.586361
0.589229
0.600893
0.603979
0.614980
0.618194
0.628639
0.631899
0.641868
0.645094
0.654732
0.657884
0.667232
0.670269
0.679441
0.682340
0.691362
0.694098
0.703065
0.705630
0.714551
0.716937
0.725885
0.728094
0.737067
0.739102
0.748145
0.750016
0.759122
0.760836
0.770032
0.771599
0.780876
0.782306
0.791678
0.792981
0.802440
0.803624
0.813176
0.814252
0.823889
0.824864
0.834587
0.835469
0.845272
0.846068
0.855951
0.856667
0.866622
0.867265
0.877292
0.877865
0.887959
0.888468
0.898625
0.899075
0.909292
0.909685
0.919959
0.920299
0.930628
0.930917
0.941298
0.941539
0.951969
0.952163
0.962641
0.962791
0.973314
0.973420
0.983988
0.984052
0.994663
0.994684
0.005295
0.005275
0.015886
0.015825
0.026475
0.026373
0.037062
0.036918
0.047645
0.047458
0.058225
0.057992
0.068798
0.068519
0.079366
0.079037
0.089928
0.089546
0.100482
0.100044
0.111028
0.110530
0.121567
0.121005
0.132098
0.131465
0.142621
0.141913
0.153138
0.152347
0.163649