# vtk DataFile Version 2.0
MATLAB generated vtk file, WMC
ASCII
DATASET UNSTRUCTURED_GRID
POINTS 256 double
0.195312 0.063423 0.000000 
0.195312 0.190270 0.000000 
0.585938 0.063423 0.000000 
0.585938 0.190270 0.000000 
0.195312 0.317291 0.000000 
0.195312 0.444889 0.000000 
0.585938 0.317291 0.000000 
0.585938 0.444889 0.000000 
0.195312 0.573051 0.000000 
0.195312 0.701890 0.000000 
0.585938 0.573051 0.000000 
0.585938 0.701890 0.000000 
0.195312 0.831346 0.000000 
0.195312 0.961317 0.000000 
0.585938 0.831346 0.000000 
0.585938 0.961317 0.000000 
0.195312 1.091783 0.000000 
0.195312 1.222828 0.000000 
0.585938 1.091783 0.000000 
0.585938 1.222828 0.000000 
0.195312 1.354460 0.000000 
0.195312 1.486721 0.000000 
0.585938 1.354460 0.000000 
0.585938 1.486721 0.000000 
0.195312 1.619591 0.000000 
0.195312 1.753041 0.000000 
0.585938 1.619591 0.000000 
0.585938 1.753041 0.000000 
0.195312 1.887045 0.000000 
0.195312 2.021666 0.000000 
0.585938 1.887045 0.000000 
0.585938 2.021666 0.000000 
0.195312 2.156906 0.000000 
0.195312 2.292795 0.000000 
0.585938 2.156906 0.000000 
0.585938 2.292795 0.000000 
0.195312 2.429330 0.000000 
0.195312 2.566477 0.000000 
0.585938 2.429330 0.000000 
0.585938 2.566477 0.000000 
0.195312 2.704282 0.000000 
0.195312 2.842746 0.000000 
0.585938 2.704282 0.000000 
0.585938 2.842746 0.000000 
0.195312 2.981896 0.000000 
0.195312 3.121717 0.000000 
0.585938 2.981896 0.000000 
0.585938 3.121717 0.000000 
0.195312 3.262212 0.000000 
0.195312 3.403366 0.000000 
0.585938 3.262212 0.000000 
0.585938 3.403366 0.000000 
0.195312 3.545224 0.000000 
0.195312 3.687748 0.000000 
0.585938 3.545224 0.000000 
0.585938 3.687748 0.000000 
0.195312 3.831043 0.000000 
0.195312 3.975082 0.000000 
0.585938 3.831043 0.000000 
0.585938 3.975082 0.000000 
0.195312 4.119812 0.000000 
0.195312 4.265278 0.000000 
0.585938 4.119812 0.000000 
0.585938 4.265278 0.000000 
0.195312 4.411493 0.000000 
0.195312 4.558519 0.000000 
0.585938 4.411493 0.000000 
0.585938 4.558519 0.000000 
0.195312 4.706245 0.000000 
0.195312 4.854810 0.000000 
0.585938 4.706245 0.000000 
0.585938 4.854810 0.000000 
0.195312 5.004117 0.000000 
0.195312 5.154264 0.000000 
0.585938 5.004117 0.000000 
0.585938 5.154264 0.000000 
0.195312 5.305195 0.000000 
0.195312 5.456977 0.000000 
0.585938 5.305195 0.000000 
0.585938 5.456977 0.000000 
0.195312 5.609630 0.000000 
0.195312 5.763006 0.000000 
0.585938 5.609630 0.000000 
0.585938 5.763006 0.000000 
0.195312 5.917339 0.000000 
0.195312 6.072453 0.000000 
0.585938 5.917339 0.000000 
0.585938 6.072453 0.000000 
0.195312 6.228577 0.000000 
0.195312 6.385517 0.000000 
0.585938 6.228577 0.000000 
0.585938 6.385517 0.000000 
0.195312 6.543374 0.000000 
0.195312 6.702129 0.000000 
0.585938 6.543374 0.000000 
0.585938 6.702129 0.000000 
0.195312 6.861793 0.000000 
0.195312 7.022488 0.000000 
0.585938 6.861793 0.000000 
0.585938 7.022488 0.000000 
0.195312 7.184069 0.000000 
0.195312 7.346624 0.000000 
0.585938 7.184069 0.000000 
0.585938 7.346624 0.000000 
0.195312 7.510261 0.000000 
0.195312 7.674796 0.000000 
0.585938 7.510261 0.000000 
0.585938 7.674796 0.000000 
0.195312 7.840504 0.000000 
0.195312 8.007178 0.000000 
0.585938 7.840504 0.000000 
0.585938 8.007178 0.000000 
0.195312 8.174911 0.000000 
0.195312 8.343701 0.000000 
0.585938 8.174911 0.000000 
0.585938 8.343701 0.000000 
0.195312 8.513611 0.000000 
0.195312 8.684627 0.000000 
0.585938 8.513611 0.000000 
0.585938 8.684627 0.000000 
0.195312 8.856777 0.000000 
0.195312 9.030098 0.000000 
0.585938 8.856777 0.000000 
0.585938 9.030098 0.000000 
0.195312 9.204485 0.000000 
0.195312 9.380129 0.000000 
0.585938 9.204485 0.000000 
0.585938 9.380129 0.000000 
0.195312 9.557054 0.000000 
0.195312 9.735117 0.000000 
0.585938 9.557054 0.000000 
0.585938 9.735117 0.000000 
0.195312 9.914552 0.000000 
0.195312 10.095204 0.000000 
0.585938 9.914552 0.000000 
0.585938 10.095204 0.000000 
0.195312 10.277096 0.000000 
0.195312 10.460411 0.000000 
0.585938 10.277096 0.000000 
0.585938 10.460411 0.000000 
0.195312 10.644908 0.000000 
0.195312 10.830907 0.000000 
0.585938 10.644908 0.000000 
0.585938 10.830907 0.000000 
0.195312 11.018253 0.000000 
0.195312 11.207065 0.000000 
0.585938 11.018253 0.000000 
0.585938 11.207065 0.000000 
0.195312 11.397333 0.000000 
0.195312 11.589147 0.000000 
0.585938 11.397333 0.000000 
0.585938 11.589147 0.000000 
0.195312 11.782517 0.000000 
0.195312 11.977406 0.000000 
0.585938 11.782517 0.000000 
0.585938 11.977406 0.000000 
0.195312 12.173733 0.000000 
0.195312 12.371760 0.000000 
0.585938 12.173733 0.000000 
0.585938 12.371760 0.000000 
0.195312 12.571383 0.000000 
0.195312 12.772834 0.000000 
0.585938 12.571383 0.000000 
0.585938 12.772834 0.000000 
0.195312 12.975974 0.000000 
0.195312 13.180964 0.000000 
0.585938 12.975974 0.000000 
0.585938 13.180964 0.000000 
0.195312 13.387832 0.000000 
0.195312 13.596187 0.000000 
0.585938 13.387832 0.000000 
0.585938 13.596187 0.000000 
0.195312 13.806560 0.000000 
0.195312 14.018716 0.000000 
0.585938 13.806560 0.000000 
0.585938 14.018716 0.000000 
0.195312 14.232975 0.000000 
0.195312 14.449302 0.000000 
0.585938 14.232975 0.000000 
0.585938 14.449302 0.000000 
0.195312 14.667964 0.000000 
0.195312 14.888712 0.000000 
0.585938 14.667964 0.000000 
0.585938 14.888712 0.000000 
0.195312 15.111532 0.000000 
0.195312 15.336562 0.000000 
0.585938 15.111532 0.000000 
0.585938 15.336562 0.000000 
0.195312 15.564012 0.000000 
0.195312 15.793588 0.000000 
0.585938 15.564012 0.000000 
0.585938 15.793588 0.000000 
0.195312 16.025838 0.000000 
0.195312 16.260520 0.000000 
0.585938 16.025838 0.000000 
0.585938 16.260520 0.000000 
0.195312 16.497941 0.000000 
0.195312 16.737797 0.000000 
0.585938 16.497941 0.000000 
0.585938 16.737797 0.000000 
0.195312 16.980471 0.000000 
0.195312 17.226154 0.000000 
0.585938 16.980471 0.000000 
0.585938 17.226154 0.000000 
0.195312 17.474522 0.000000 
0.195312 17.726131 0.000000 
0.585938 17.474522 0.000000 
0.585938 17.726131 0.000000 
0.195312 17.980763 0.000000 
0.195312 18.238790 0.000000 
0.585938 17.980763 0.000000 
0.585938 18.238790 0.000000 
0.195312 18.499877 0.000000 
0.195312 18.764576 0.000000 
0.585938 18.499877 0.000000 
0.585938 18.764576 0.000000 
0.195312 19.032992 0.000000 
0.195312 19.304930 0.000000 
0.585938 19.032992 0.000000 
0.585938 19.304930 0.000000 
0.195312 19.580974 0.000000 
0.195312 19.860820 0.000000 
0.585938 19.580974 0.000000 
0.585938 19.860820 0.000000 
0.195312 20.145246 0.000000 
0.195312 20.433987 0.000000 
0.585938 20.145246 0.000000 
0.585938 20.433987 0.000000 
0.195312 20.727064 0.000000 
0.195312 21.024581 0.000000 
0.585938 20.727064 0.000000 
0.585938 21.024581 0.000000 
0.195312 21.327022 0.000000 
0.195312 21.635479 0.000000 
0.585938 21.327022 0.000000 
0.585938 21.635479 0.000000 
0.195312 21.949505 0.000000 
0.195312 22.269345 0.000000 
0.585938 21.949505 0.000000 
0.585938 22.269345 0.000000 
0.195312 22.594223 0.000000 
0.195312 22.926416 0.000000 
0.585938 22.594223 0.000000 
0.585938 22.926416 0.000000 
0.195312 23.265070 0.000000 
0.195312 23.611154 0.000000 
0.585938 23.265070 0.000000 
0.585938 23.611154 0.000000 
0.195312 23.964314 0.000000 
0.195312 24.328817 0.000000 
0.585938 23.964314 0.000000 
0.585938 24.328817 0.000000 
0.195312 24.698340 0.000000 
0.195312 25.071680 0.000000 
0.585938 24.698340 0.000000 
0.585938 25.071680 0.000000 

POINT_DATA 256
SCALARS sigma_xx FLOAT 1
LOOKUP_TABLE default
0.000000
0.000000
0.000000
0.000000
-0.000000
-0.000000
-0.000000
-0.000000
-0.000000
-0.000000
-0.000000
-0.000000
-0.000000
-0.000000
-0.000000
-0.000000
-0.000000
-0.000000
-0.000000
-0.000000
0.000000
-0.000000
0.000000
-0.000000
-0.000000
-0.000000
-0.000000
-0.000000
-0.000000
0.000000
-0.000000
0.000000
-0.000000
-0.000000
-0.000000
-0.000000
-0.000000
-0.000000
-0.000000
-0.000000
-0.000000
-0.000000
-0.000000
-0.000000
-0.000000
-0.000000
-0.000000
0.000000
-0.000000
-0.000000
-0.000000
-0.000000
-0.000000
-0.000000
-0.000000
-0.000000
-0.000000
0.000000
-0.000000
0.000000
-0.000000
0.000000
-0.000000
0.000000
-0.000000
0.000000
-0.000000
0.000000
-0.000000
-0.000000
-0.000000
-0.000000
-0.000000
-0.000000
-0.000000
-0.000000
-0.000000
-0.000000
-0.000000
-0.000000
-0.000000
-0.000000
-0.000000
-0.000000
-0.000000
0.000000
-0.000000
0.000000
-0.000000
-0.000000
0.000000
-0.000000
-0.000000
-0.000000
-0.000000
0.000000
-0.000000
-0.000000
-0.000000
-0.000000
-0.000000
-0.000000
-0.000000
-0.000000
-0.000000
0.000000
0.000000
-0.000000
-0.000000
-0.000000
-0.000000
-0.000000
-0.000000
-0.000000
-0.000000
-0.000000
-0.000000
-0.000000
-0.000000
-0.000000
-0.000000
-0.000000
-0.000000
-0.000000
-0.000000
-0.000000
-0.000000
-0.000000
-0.000000
0.000000
-0.000000
0.000000
-0.000000
-0.000000
-0.000000
-0.000000
-0.000000
-0.000000
-0.000000
-0.000000
-0.000000
-0.000000
-0.000000
-0.000000
-0.000000
-0.000000
-0.000000
-0.000000
-0.000000
-0.000000
-0.000000
-0.000000
-0.000000
-0.000000
-0.000000
-0.000000
-0.000000
-0.000000
-0.000000
-0.000000
-0.000000
-0.000000
-0.000000
-0.000000
-0.000000
-0.000000
-0.000000
-0.000000
-0.000000
-0.000000
-0.000000
-0.000000
-0.000000
-0.000000
-0.000000
-0.000000
-0.000000
-0.000000
-0.000000
-0.000000
-0.000000
-0.000000
-0.000000
-0.000000
-0.000000
-0.000000
-0.000000
-0.000000
-0.000000
-0.000000
-0.000000
-0.000000
-0.000000
-0.000000
-0.000000
-0.000000
-0.000000
-0.000000
-0.000000
-0.000000
-0.000000
-0.000000
-0.000000
-0.000000
-0.000000
-0.000000
-0.000000
-0.000000
-0.000000
-0.000000
-0.000000
-0.000000
0.000000
-0.000000
0.000000
-0.000000
-0.000000
-0.000000
-0.000000
-0.000000
0.000000
-0.000000
0.000000
-0.000000
0.000000
-0.000000
0.000000
-0.000000
-0.000000
-0.000000
-0.000000
-0.000000
-0.000000
-0.000000
-0.000000
-0.000000
-0.000000
-0.000000
-0.000000
-0.000000
0.000000
-0.000000
0.000000
-0.000000
-0.000000
0.000000
-0.000000
0.000000
-0.000000
-0.000000
-0.000000
-0.000000
0.000000
-0.000000
0.000000
-0.000000

SCALARS sigma_yy FLOAT 1
LOOKUP_TABLE default
-34637.374263
-34637.374263
-34637.374263
-34637.374263
-34400.177607
-34126.152583
-34400.177607
-34126.152583
-33788.234198
-33481.745797
-33788.234198
-33481.745797
-33177.590506
-32968.798620
-33177.590506
-32968.798620
-32690.367824
-32427.482250
-32690.367824
-32427.482250
-32125.330990
-31851.211236
-32125.330990
-31851.211236
-31560.961968
-31321.818889
-31560.961968
-31321.818889
-31043.315113
-30781.453045
-31043.315113
-30781.453045
-30481.029473
-30222.308760
-30481.029473
-30222.308760
-29931.316279
-29691.221586
-29931.316279
-29691.221586
-29389.254945
-29126.775550
-29389.254945
-29126.775550
-28819.376742
-28583.670187
-28819.376742
-28583.670187
-28292.116851
-28045.655755
-28292.116851
-28045.655755
-27747.988434
-27495.747078
-27747.988434
-27495.747078
-27184.816071
-26939.085747
-27184.816071
-26939.085747
-26643.350286
-26401.719482
-26643.350286
-26401.719482
-26110.340989
-25827.614918
-26110.340989
-25827.614918
-25563.721929
-25301.701325
-25563.721929
-25301.701325
-25017.721931
-24742.294481
-25017.721931
-24742.294481
-24466.673302
-24195.848654
-24466.673302
-24195.848654
-23907.928058
-23671.996820
-23907.928058
-23671.996820
-23376.386786
-23113.960009
-23376.386786
-23113.960009
-22799.141774
-22574.697234
-22799.141774
-22574.697234
-22276.362462
-22028.319243
-22276.362462
-22028.319243
-21740.894721
-21465.051867
-21740.894721
-21465.051867
-21202.853581
-20925.267193
-21202.853581
-20925.267193
-20637.540756
-20382.208372
-20637.540756
-20382.208372
-20086.464933
-19831.066123
-20086.464933
-19831.066123
-19546.455578
-19285.595792
-19546.455578
-19285.595792
-18991.172233
-18735.529424
-18991.172233
-18735.529424
-18448.506143
-18197.394037
-18448.506143
-18197.394037
-17908.352099
-17650.359070
-17908.352099
-17650.359070
-17342.398394
-17105.530095
-17342.398394
-17105.530095
-16789.336577
-16547.038509
-16789.336577
-16547.038509
-16259.842024
-16014.679961
-16259.842024
-16014.679961
-15728.798383
-15457.590729
-15728.798383
-15457.590729
-15173.825184
-14906.324820
-15173.825184
-14906.324820
-14625.631731
-14351.501612
-14625.631731
-14351.501612
-14059.380798
-13814.445857
-14059.380798
-13814.445857
-13552.434621
-13258.513976
-13552.434621
-13258.513976
-13003.791831
-12700.834427
-13003.791831
-12700.834427
-12430.365431
-12138.742749
-12430.365431
-12138.742749
-11895.213034
-11637.646816
-11895.213034
-11637.646816
-11367.355577
-11095.762003
-11367.355577
-11095.762003
-10805.971060
-10517.042991
-10805.971060
-10517.042991
-10236.454586
-9965.071565
-10236.454586
-9965.071565
-9716.345000
-9430.906819
-9716.345000
-9430.906819
-9159.996001
-8903.025064
-9159.996001
-8903.025064
-8602.655530
-8349.446152
-8602.655530
-8349.446152
-8052.035318
-7815.330814
-8052.035318
-7815.330814
-7507.167124
-7253.835828
-7507.167124
-7253.835828
-6975.039331
-6698.334768
-6975.039331
-6698.334768
-6425.204435
-6150.314917
-6425.204435
-6150.314917
-5880.828988
-5605.557136
-5880.828988
-5605.557136
-5331.694039
-5060.760867
-5331.694039
-5060.760867
-4776.606480
-4516.298431
-4776.606480
-4516.298431
-4213.681116
-3963.484707
-4213.681116
-3963.484707
-3701.141707
-3450.564878
-3701.141707
-3450.564878
-3139.337022
-2858.122153
-3139.337022
-2858.122153
-2569.388706
-2340.302187
-2569.388706
-2340.302187
-2064.520989
-1774.732584
-2064.520989
-1774.732584
-1504.430898
-1247.739306
-1504.430898
-1247.739306
-940.302020
-625.497507
-940.302020
-625.497507
-520.266401
-59.639846
-520.266401
-59.639846

SCALARS sigma_zz FLOAT 1
LOOKUP_TABLE default
0.000000
0.000000
0.000000
0.000000
0.000000
0.000000
0.000000
0.000000
0.000000
0.000000
0.000000
0.000000
0.000000
0.000000
0.000000
0.000000
0.000000
0.000000
0.000000
0.000000
0.000000
0.000000
0.000000
0.000000
0.000000
0.000000
0.000000
0.000000
0.000000
0.000000
0.000000
0.000000
0.000000
0.000000
0.000000
0.000000
0.000000
0.000000
0.000000
0.000000
0.000000
0.000000
0.000000
0.000000
0.000000
0.000000
0.000000
0.000000
0.000000
0.000000
0.000000
0.000000
0.000000
0.000000
0.000000
0.000000
0.000000
0.000000
0.000000
0.000000
0.000000
0.000000
0.000000
0.000000
0.000000
0.000000
0.000000
0.000000
0.000000
0.000000
0.000000
0.000000
0.000000
0.000000
0.000000
0.000000
0.000000
0.000000
0.000000
0.000000
0.000000
0.000000
0.000000
0.000000
0.000000
0.000000
0.000000
0.000000
0.000000
0.000000
0.000000
0.000000
0.000000
0.000000
0.000000
0.000000
0.000000
0.000000
0.000000
0.000000
0.000000
0.000000
0.000000
0.000000
0.000000
0.000000
0.000000
0.000000
0.000000
0.000000
0.000000
0.000000
0.000000
0.000000
0.000000
0.000000
0.000000
0.000000
0.000000
0.000000
0.000000
0.000000
0.000000
0.000000
0.000000
0.000000
0.000000
0.000000
0.000000
0.000000
0.000000
0.000000
0.000000
0.000000
0.000000
0.000000
0.000000
0.000000
0.000000
0.000000
0.000000
0.000000
0.000000
0.000000
0.000000
0.000000
0.000000
0.000000
0.000000
0.000000
0.000000
0.000000
0.000000
0.000000
0.000000
0.000000
0.000000
0.000000
0.000000
0.000000
0.000000
0.000000
0.000000
0.000000
0.000000
0.000000
0.000000
0.000000
0.000000
0.000000
0.000000
0.000000
0.000000
0.000000
0.000000
0.000000
0.000000
0.000000
0.000000
0.000000
0.000000
0.000000
0.000000
0.000000
0.000000
0.000000
0.000000
0.000000
0.000000
0.000000
0.000000
0.000000
0.000000
0.000000
0.000000
0.000000
0.000000
0.000000
0.000000
0.000000
0.000000
0.000000
0.000000
0.000000
0.000000
0.000000
0.000000
0.000000
0.000000
0.000000
0.000000
0.000000
0.000000
0.000000
0.000000
0.000000
0.000000
0.000000
0.000000
0.000000
0.000000
0.000000
0.000000
0.000000
0.000000
0.000000
0.000000
0.000000
0.000000
0.000000
0.000000
0.000000
0.000000
0.000000
0.000000
0.000000
0.000000
0.000000
0.000000
0.000000
0.000000
0.000000
0.000000
0.000000
0.000000
0.000000
0.000000
0.000000
0.000000
0.000000
0.000000
0.000000
0.000000
0.000000
0.000000
0.000000

SCALARS sigma_xy FLOAT 1
LOOKUP_TABLE default
0.000000
0.000000
0.000000
0.000000
-0.000000
-0.000000
-0.000000
-0.000000
-0.000000
-0.000000
-0.000000
-0.000000
-0.000000
0.000000
-0.000000
-0.000000
0.000000
0.000000
0.000000
0.000000
0.000000
0.000000
0.000000
0.000000
0.000000
-0.000000
0.000000
-0.000000
-0.000000
0.000000
-0.000000
0.000000
-0.000000
-0.000000
-0.000000
-0.000000
-0.000000
-0.000000
-0.000000
-0.000000
0.000000
0.000000
0.000000
0.000000
0.000000
0.000000
0.000000
0.000000
-0.000000
-0.000000
-0.000000
-0.000000
-0.000000
-0.000000
-0.000000
-0.000000
-0.000000
0.000000
-0.000000
0.000000
0.000000
0.000000
0.000000
0.000000
0.000000
0.000000
0.000000
0.000000
-0.000000
-0.000000
-0.000000
-0.000000
-0.000000
0.000000
-0.000000
0.000000
-0.000000
-0.000000
-0.000000
-0.000000
0.000000
-0.000000
0.000000
-0.000000
0.000000
0.000000
0.000000
0.000000
-0.000000
-0.000000
0.000000
-0.000000
-0.000000
-0.000000
-0.000000
0.000000
0.000000
0.000000
0.000000
0.000000
0.000000
0.000000
0.000000
0.000000
0.000000
0.000000
0.000000
-0.000000
-0.000000
-0.000000
-0.000000
-0.000000
0.000000
0.000000
0.000000
0.000000
0.000000
0.000000
0.000000
0.000000
-0.000000
-0.000000
-0.000000
-0.000000
-0.000000
-0.000000
-0.000000
-0.000000
-0.000000
0.000000
-0.000000
0.000000
0.000000
-0.000000
0.000000
-0.000000
-0.000000
-0.000000
-0.000000
-0.000000
-0.000000
0.000000
-0.000000
0.000000
0.000000
0.000000
0.000000
0.000000
0.000000
0.000000
0.000000
0.000000
-0.000000
-0.000000
-0.000000
-0.000000
-0.000000
-0.000000
-0.000000
-0.000000
-0.000000
-0.000000
-0.000000
-0.000000
0.000000
0.000000
0.000000
0.000000
0.000000
0.000000
0.000000
0.000000
-0.000000
0.000000
-0.000000
0.000000
-0.000000
-0.000000
-0.000000
-0.000000
0.000000
0.000000
0.000000
0.000000
0.000000
-0.000000
0.000000
-0.000000
0.000000
-0.000000
0.000000
-0.000000
0.000000
-0.000000
0.000000
-0.000000
0.000000
0.000000
0.000000
0.000000
0.000000
-0.000000
0.000000
-0.000000
-0.000000
-0.000000
-0.000000
-0.000000
0.000000
0.000000
0.000000
0.000000
0.000000
-0.000000
0.000000
-0.000000
-0.000000
0.000000
-0.000000
0.000000
0.000000
0.000000
0.000000
0.000000
0.000000
-0.000000
0.000000
-0.000000
-0.000000
-0.000000
-0.000000
-0.000000
0.000000
0.000000
0.000000
0.000000
0.000000
-0.000000
0.000000
-0.000000
0.000000
0.000000
0.000000
0.000000
-0.000000
0.000000
-0.000000
0.000000
-0.000000
-0.000000
-0.000000
-0.000000
0.000000
0.000000
0.000000
0.000000

SCALARS sigma_yz FLOAT 1
LOOKUP_TABLE default
0.000000
0.000000
0.000000
0.000000
0.000000
0.000000
0.000000
0.000000
0.000000
0.000000
0.000000
0.000000
0.000000
0.000000
0.000000
0.000000
0.000000
0.000000
0.000000
0.000000
0.000000
0.000000
0.000000
0.000000
0.000000
0.000000
0.000000
0.000000
0.000000
0.000000
0.000000
0.000000
0.000000
0.000000
0.000000
0.000000
0.000000
0.000000
0.000000
0.000000
0.000000
0.000000
0.000000
0.000000
0.000000
0.000000
0.000000
0.000000
0.000000
0.000000
0.000000
0.000000
0.000000
0.000000
0.000000
0.000000
0.000000
0.000000
0.000000
0.000000
0.000000
0.000000
0.000000
0.000000
0.000000
0.000000
0.000000
0.000000
0.000000
0.000000
0.000000
0.000000
0.000000
0.000000
0.000000
0.000000
0.000000
0.000000
0.000000
0.000000
0.000000
0.000000
0.000000
0.000000
0.000000
0.000000
0.000000
0.000000
0.000000
0.000000
0.000000
0.000000
0.000000
0.000000
0.000000
0.000000
0.000000
0.000000
0.000000
0.000000
0.000000
0.000000
0.000000
0.000000
0.000000
0.000000
0.000000
0.000000
0.000000
0.000000
0.000000
0.000000
0.000000
0.000000
0.000000
0.000000
0.000000
0.000000
0.000000
0.000000
0.000000
0.000000
0.000000
0.000000
0.000000
0.000000
0.000000
0.000000
0.000000
0.000000
0.000000
0.000000
0.000000
0.000000
0.000000
0.000000
0.000000
0.000000
0.000000
0.000000
0.000000
0.000000
0.000000
0.000000
0.000000
0.000000
0.000000
0.000000
0.000000
0.000000
0.000000
0.000000
0.000000
0.000000
0.000000
0.000000
0.000000
0.000000
0.000000
0.000000
0.000000
0.000000
0.000000
0.000000
0.000000
0.000000
0.000000
0.000000
0.000000
0.000000
0.000000
0.000000
0.000000
0.000000
0.000000
0.000000
0.000000
0.000000
0.000000
0.000000
0.000000
0.000000
0.000000
0.000000
0.000000
0.000000
0.000000
0.000000
0.000000
0.000000
0.000000
0.000000
0.000000
0.000000
0.000000
0.000000
0.000000
0.000000
0.000000
0.000000
0.000000
0.000000
0.000000
0.000000
0.000000
0.000000
0.000000
0.000000
0.000000
0.000000
0.000000
0.000000
0.000000
0.000000
0.000000
0.000000
0.000000
0.000000
0.000000
0.000000
0.000000
0.000000
0.000000
0.000000
0.000000
0.000000
0.000000
0.000000
0.000000
0.000000
0.000000
0.000000
0.000000
0.000000
0.000000
0.000000
0.000000
0.000000
0.000000
0.000000
0.000000
0.000000
0.000000
0.000000
0.000000
0.000000
0.000000
0.000000
0.000000
0.000000
0.000000
0.000000
0.000000
0.000000
0.000000
0.000000

SCALARS sigma_zx FLOAT 1
LOOKUP_TABLE default
0.000000
0.000000
0.000000
0.000000
0.000000
0.000000
0.000000
0.000000
0.000000
0.000000
0.000000
0.000000
0.000000
0.000000
0.000000
0.000000
0.000000
0.000000
0.000000
0.000000
0.000000
0.000000
0.000000
0.000000
0.000000
0.000000
0.000000
0.000000
0.000000
0.000000
0.000000
0.000000
0.000000
0.000000
0.000000
0.000000
0.000000
0.000000
0.000000
0.000000
0.000000
0.000000
0.000000
0.000000
0.000000
0.000000
0.000000
0.000000
0.000000
0.000000
0.000000
0.000000
0.000000
0.000000
0.000000
0.000000
0.000000
0.000000
0.000000
0.000000
0.000000
0.000000
0.000000
0.000000
0.000000
0.000000
0.000000
0.000000
0.000000
0.000000
0.000000
0.000000
0.000000
0.000000
0.000000
0.000000
0.000000
0.000000
0.000000
0.000000
0.000000
0.000000
0.000000
0.000000
0.000000
0.000000
0.000000
0.000000
0.000000
0.000000
0.000000
0.000000
0.000000
0.000000
0.000000
0.000000
0.000000
0.000000
0.000000
0.000000
0.000000
0.000000
0.000000
0.000000
0.000000
0.000000
0.000000
0.000000
0.000000
0.000000
0.000000
0.000000
0.000000
0.000000
0.000000
0.000000
0.000000
0.000000
0.000000
0.000000
0.000000
0.000000
0.000000
0.000000
0.000000
0.000000
0.000000
0.000000
0.000000
0.000000
0.000000
0.000000
0.000000
0.000000
0.000000
0.000000
0.000000
0.000000
0.000000
0.000000
0.000000
0.000000
0.000000
0.000000
0.000000
0.000000
0.000000
0.000000
0.000000
0.000000
0.000000
0.000000
0.000000
0.000000
0.000000
0.000000
0.000000
0.000000
0.000000
0.000000
0.000000
0.000000
0.000000
0.000000
0.000000
0.000000
0.000000
0.000000
0.000000
0.000000
0.000000
0.000000
0.000000
0.000000
0.000000
0.000000
0.000000
0.000000
0.000000
0.000000
0.000000
0.000000
0.000000
0.000000
0.000000
0.000000
0.000000
0.000000
0.000000
0.000000
0.000000
0.000000
0.000000
0.000000
0.000000
0.000000
0.000000
0.000000
0.000000
0.000000
0.000000
0.000000
0.000000
0.000000
0.000000
0.000000
0.000000
0.000000
0.000000
0.000000
0.000000
0.000000
0.000000
0.000000
0.000000
0.000000
0.000000
0.000000
0.000000
0.000000
0.000000
0.000000
0.000000
0.000000
0.000000
0.000000
0.000000
0.000000
0.000000
0.000000
0.000000
0.000000
0.000000
0.000000
0.000000
0.000000
0.000000
0.000000
0.000000
0.000000
0.000000
0.000000
0.000000
0.000000
0.000000
0.000000
0.000000
0.000000
0.000000
0.000000
0.000000
0.000000
0.000000
0.000000
0.000000
0.000000

SCALARS u_x FLOAT 1
LOOKUP_TABLE default
0.000000
0.000000
0.000000
0.000000
0.000000
0.000000
0.000000
0.000000
0.000000
0.000000
0.000000
0.000000
0.000000
0.000000
0.000000
0.000000
0.000000
0.000000
0.000000
0.000000
0.000000
0.000000
0.000000
0.000000
0.000000
0.000000
0.000000
0.000000
0.000000
0.000000
0.000000
0.000000
0.000000
0.000000
0.000000
0.000000
0.000000
0.000000
0.000000
0.000000
0.000000
0.000000
0.000000
0.000000
0.000000
0.000000
0.000000
0.000000
0.000000
0.000000
0.000000
0.000000
0.000000
0.000000
0.000000
0.000000
0.000000
0.000000
0.000000
0.000000
0.000000
0.000000
0.000000
0.000000
0.000000
0.000000
0.000000
0.000000
0.000000
0.000000
0.000000
0.000000
0.000000
0.000000
0.000000
0.000000
0.000000
0.000000
0.000000
0.000000
0.000000
0.000000
0.000000
0.000000
0.000000
0.000000
0.000000
0.000000
0.000000
0.000000
0.000000
0.000000
0.000000
0.000000
0.000000
0.000000
0.000000
0.000000
0.000000
0.000000
0.000000
0.000000
0.000000
0.000000
0.000000
0.000000
0.000000
0.000000
0.000000
0.000000
0.000000
0.000000
0.000000
0.000000
0.000000
0.000000
0.000000
0.000000
0.000000
0.000000
0.000000
0.000000
0.000000
0.000000
0.000000
0.000000
0.000000
0.000000
0.000000
0.000000
0.000000
0.000000
0.000000
0.000000
0.000000
0.000000
0.000000
0.000000
0.000000
0.000000
0.000000
0.000000
0.000000
0.000000
0.000000
0.000000
0.000000
0.000000
0.000000
0.000000
0.000000
0.000000
0.000000
0.000000
0.000000
0.000000
0.000000
0.000000
0.000000
0.000000
0.000000
0.000000
0.000000
0.000000
0.000000
0.000000
0.000000
0.000000
0.000000
0.000000
0.000000
0.000000
0.000000
0.000000
0.000000
0.000000
0.000000
0.000000
0.000000
0.000000
0.000000
0.000000
0.000000
0.000000
0.000000
0.000000
0.000000
0.000000
0.000000
0.000000
0.000000
0.000000
0.000000
0.000000
0.000000
0.000000
0.000000
0.000000
0.000000
0.000000
0.000000
0.000000
0.000000
0.000000
0.000000
0.000000
0.000000
0.000000
0.000000
0.000000
0.000000
0.000000
0.000000
0.000000
0.000000
0.000000
0.000000
0.000000
0.000000
0.000000
0.000000
0.000000
0.000000
0.000000
0.000000
0.000000
0.000000
0.000000
0.000000
0.000000
0.000000
0.000000
0.000000
0.000000
0.000000
0.000000
0.000000
0.000000
0.000000
0.000000
0.000000
0.000000
0.000000
0.000000
0.000000
0.000000
0.000000
0.000000
0.000000
0.000000
0.000000
0.000000
0.000000
0.000000
0.000000
0.000000

SCALARS u_y FLOAT 1
LOOKUP_TABLE default
-0.131889
-0.395668
-0.131889
-0.395668
-0.659271
-0.922299
-0.659271
-0.922299
-1.184762
-1.446548
-1.184762
-1.446548
-1.707716
-1.968371
-1.707716
-1.968371
-2.228529
-2.488110
-2.228529
-2.488110
-2.747102
-3.005466
-2.747102
-3.005466
-3.263222
-3.520397
-3.263222
-3.520397
-3.777018
-4.033022
-3.777018
-4.033022
-4.288406
-4.543143
-4.288406
-4.543143
-4.797232
-5.050710
-4.797232
-5.050710
-5.303531
-5.555692
-5.303531
-5.555692
-5.807167
-6.057970
-5.807167
-6.057970
-6.308100
-6.557572
-6.308100
-6.557572
-6.806338
-7.054439
-6.806338
-7.054439
-7.301769
-7.548355
-7.301769
-7.548355
-7.794251
-8.039410
-7.794251
-8.039410
-8.283820
-8.527418
-8.283820
-8.527418
-8.770317
-9.012378
-8.770317
-9.012378
-9.253696
-9.494174
-9.253696
-9.494174
-9.733867
-9.972711
-9.733867
-9.972711
-10.210683
-10.447932
-10.210683
-10.447932
-10.684224
-10.919734
-10.684224
-10.919734
-11.154236
-11.387921
-11.154236
-11.387921
-11.620688
-11.852559
-11.620688
-11.852559
-12.083519
-12.313449
-12.083519
-12.313449
-12.542493
-12.770564
-12.542493
-12.770564
-12.997551
-13.223641
-12.997551
-13.223641
-13.448558
-13.672509
-13.448558
-13.672509
-13.895401
-14.117237
-13.895401
-14.117237
-14.337952
-14.557560
-14.337952
-14.557560
-14.776035
-14.993339
-14.776035
-14.993339
-15.209577
-15.424558
-15.209577
-15.424558
-15.638259
-15.850820
-15.638259
-15.850820
-16.062011
-16.271984
-16.062011
-16.271984
-16.480717
-16.688027
-16.480717
-16.688027
-16.894155
-17.098780
-16.894155
-17.098780
-17.302059
-17.503872
-17.302059
-17.503872
-17.704230
-17.903041
-17.704230
-17.903041
-18.100295
-18.296031
-18.100295
-18.296031
-18.490330
-18.682928
-18.490330
-18.682928
-18.873930
-19.063104
-18.873930
-19.063104
-19.250588
-19.436224
-19.250588
-19.436224
-19.619980
-19.802250
-19.619980
-19.802250
-19.982503
-20.160972
-19.982503
-20.160972
-20.337337
-20.511635
-20.337337
-20.511635
-20.683599
-20.853475
-20.683599
-20.853475
-21.021280
-21.186876
-21.021280
-21.186876
-21.350051
-21.511100
-21.350051
-21.511100
-21.669475
-21.825417
-21.669475
-21.825417
-21.978621
-22.129391
-21.978621
-22.129391
-22.277341
-22.422284
-22.277341
-22.422284
-22.564541
-22.703556
-22.564541
-22.703556
-22.839549
-22.972148
-22.839549
-22.972148
-23.101685
-23.227611
-23.101685
-23.227611
-23.349821
-23.468507
-23.349821
-23.468507
-23.583088
-23.693868
-23.583088
-23.693868
-23.800067
-23.901951
-23.800067
-23.901951
-23.999498
-24.092607
-23.999498
-24.092607
-24.180791
-24.262959
-24.180791
-24.262959
-24.339558
-24.410342
-24.339558
-24.410342
-24.476089
-24.534522
-24.476089
-24.534522
-24.586492
-24.631034
-24.586492
-24.631034
-24.668499
-24.694621
-24.668499
-24.694621
-24.715722
-24.733007
-24.715722
-24.733007

