# vtk DataFile Version 2.0
MATLAB generated vtk file, WMC
ASCII
DATASET UNSTRUCTURED_GRID
POINTS 256 double
0.195312 0.130999 0.000000 
0.195312 0.392998 0.000000 
0.585938 0.130999 0.000000 
0.585938 0.392998 0.000000 
0.195312 0.655358 0.000000 
0.195312 0.918688 0.000000 
0.585938 0.655358 0.000000 
0.585938 0.918688 0.000000 
0.195312 1.182408 0.000000 
0.195312 1.446810 0.000000 
0.585938 1.182408 0.000000 
0.585938 1.446810 0.000000 
0.195312 1.711858 0.000000 
0.195312 1.977449 0.000000 
0.585938 1.711858 0.000000 
0.585938 1.977449 0.000000 
0.195312 2.243656 0.000000 
0.195312 2.510559 0.000000 
0.585938 2.243656 0.000000 
0.585938 2.510559 0.000000 
0.195312 2.778009 0.000000 
0.195312 3.046111 0.000000 
0.585938 2.778009 0.000000 
0.585938 3.046111 0.000000 
0.195312 3.314851 0.000000 
0.195312 3.584250 0.000000 
0.585938 3.314851 0.000000 
0.585938 3.584250 0.000000 
0.195312 3.854318 0.000000 
0.195312 4.124913 0.000000 
0.585938 3.854318 0.000000 
0.585938 4.124913 0.000000 
0.195312 4.396097 0.000000 
0.195312 4.667947 0.000000 
0.585938 4.396097 0.000000 
0.585938 4.667947 0.000000 
0.195312 4.940540 0.000000 
0.195312 5.213807 0.000000 
0.585938 4.940540 0.000000 
0.585938 5.213807 0.000000 
0.195312 5.487817 0.000000 
0.195312 5.762340 0.000000 
0.585938 5.487817 0.000000 
0.585938 5.762340 0.000000 
0.195312 6.037602 0.000000 
0.195312 6.313484 0.000000 
0.585938 6.037602 0.000000 
0.585938 6.313484 0.000000 
0.195312 6.590097 0.000000 
0.195312 6.867346 0.000000 
0.585938 6.590097 0.000000 
0.585938 6.867346 0.000000 
0.195312 7.145352 0.000000 
0.195312 7.423969 0.000000 
0.585938 7.145352 0.000000 
0.585938 7.423969 0.000000 
0.195312 7.703375 0.000000 
0.195312 7.983481 0.000000 
0.585938 7.703375 0.000000 
0.585938 7.983481 0.000000 
0.195312 8.264201 0.000000 
0.195312 8.545734 0.000000 
0.585938 8.264201 0.000000 
0.585938 8.545734 0.000000 
0.195312 8.827866 0.000000 
0.195312 9.110911 0.000000 
0.585938 8.827866 0.000000 
0.585938 9.110911 0.000000 
0.195312 9.394441 0.000000 
0.195312 9.678880 0.000000 
0.585938 9.394441 0.000000 
0.585938 9.678880 0.000000 
0.195312 9.963926 0.000000 
0.195312 10.249906 0.000000 
0.585938 9.963926 0.000000 
0.585938 10.249906 0.000000 
0.195312 10.536532 0.000000 
0.195312 10.823911 0.000000 
0.585938 10.536532 0.000000 
0.585938 10.823911 0.000000 
0.195312 11.112121 0.000000 
0.195312 11.400854 0.000000 
0.585938 11.112121 0.000000 
0.585938 11.400854 0.000000 
0.195312 11.690670 0.000000 
0.195312 11.981034 0.000000 
0.585938 11.690670 0.000000 
0.585938 11.981034 0.000000 
0.195312 12.272504 0.000000 
0.195312 12.564574 0.000000 
0.585938 12.272504 0.000000 
0.585938 12.564574 0.000000 
0.195312 12.857313 0.000000 
0.195312 13.150943 0.000000 
0.585938 12.857313 0.000000 
0.585938 13.150943 0.000000 
0.195312 13.445219 0.000000 
0.195312 13.740601 0.000000 
0.585938 13.445219 0.000000 
0.585938 13.740601 0.000000 
0.195312 14.036712 0.000000 
0.195312 14.333569 0.000000 
0.585938 14.036712 0.000000 
0.585938 14.333569 0.000000 
0.195312 14.631364 0.000000 
0.195312 14.929781 0.000000 
0.585938 14.631364 0.000000 
0.585938 14.929781 0.000000 
0.195312 15.229419 0.000000 
0.195312 15.529680 0.000000 
0.585938 15.229419 0.000000 
0.585938 15.529680 0.000000 
0.195312 15.830848 0.000000 
0.195312 16.132785 0.000000 
0.585938 15.830848 0.000000 
0.585938 16.132785 0.000000 
0.195312 16.435504 0.000000 
0.195312 16.739329 0.000000 
0.585938 16.435504 0.000000 
0.585938 16.739329 0.000000 
0.195312 17.043966 0.000000 
0.195312 17.349544 0.000000 
0.585938 17.043966 0.000000 
0.585938 17.349544 0.000000 
0.195312 17.655956 0.000000 
0.195312 17.963277 0.000000 
0.585938 17.655956 0.000000 
0.585938 17.963277 0.000000 
0.195312 18.271677 0.000000 
0.195312 18.580961 0.000000 
0.585938 18.271677 0.000000 
0.585938 18.580961 0.000000 
0.195312 18.891123 0.000000 
0.195312 19.202137 0.000000 
0.585938 18.891123 0.000000 
0.585938 19.202137 0.000000 
0.195312 19.513949 0.000000 
0.195312 19.827042 0.000000 
0.585938 19.513949 0.000000 
0.585938 19.827042 0.000000 
0.195312 20.140901 0.000000 
0.195312 20.455951 0.000000 
0.585938 20.140901 0.000000 
0.585938 20.455951 0.000000 
0.195312 20.771718 0.000000 
0.195312 21.088762 0.000000 
0.585938 20.771718 0.000000 
0.585938 21.088762 0.000000 
0.195312 21.406618 0.000000 
0.195312 21.725529 0.000000 
0.585938 21.406618 0.000000 
0.585938 21.725529 0.000000 
0.195312 22.045468 0.000000 
0.195312 22.366547 0.000000 
0.585938 22.045468 0.000000 
0.585938 22.366547 0.000000 
0.195312 22.688509 0.000000 
0.195312 23.011524 0.000000 
0.585938 22.688509 0.000000 
0.585938 23.011524 0.000000 
0.195312 23.335541 0.000000 
0.195312 23.660756 0.000000 
0.585938 23.335541 0.000000 
0.585938 23.660756 0.000000 
0.195312 23.987000 0.000000 
0.195312 24.314401 0.000000 
0.585938 23.987000 0.000000 
0.585938 24.314401 0.000000 
0.195312 24.642943 0.000000 
0.195312 24.972414 0.000000 
0.585938 24.642943 0.000000 
0.585938 24.972414 0.000000 
0.195312 25.303062 0.000000 
0.195312 25.634675 0.000000 
0.585938 25.303062 0.000000 
0.585938 25.634675 0.000000 
0.195312 25.967739 0.000000 
0.195312 26.301662 0.000000 
0.585938 25.967739 0.000000 
0.585938 26.301662 0.000000 
0.195312 26.637148 0.000000 
0.195312 26.973486 0.000000 
0.585938 26.637148 0.000000 
0.585938 26.973486 0.000000 
0.195312 27.311315 0.000000 
0.195312 27.649989 0.000000 
0.585938 27.311315 0.000000 
0.585938 27.649989 0.000000 
0.195312 27.990089 0.000000 
0.195312 28.331168 0.000000 
0.585938 27.990089 0.000000 
0.585938 28.331168 0.000000 
0.195312 28.673686 0.000000 
0.195312 29.017307 0.000000 
0.585938 28.673686 0.000000 
0.585938 29.017307 0.000000 
0.195312 29.362334 0.000000 
0.195312 29.708579 0.000000 
0.585938 29.362334 0.000000 
0.585938 29.708579 0.000000 
0.195312 30.056164 0.000000 
0.195312 30.405077 0.000000 
0.585938 30.056164 0.000000 
0.585938 30.405077 0.000000 
0.195312 30.755299 0.000000 
0.195312 31.106867 0.000000 
0.585938 30.755299 0.000000 
0.585938 31.106867 0.000000 
0.195312 31.459679 0.000000 
0.195312 31.813907 0.000000 
0.585938 31.459679 0.000000 
0.585938 31.813907 0.000000 
0.195312 32.169487 0.000000 
0.195312 32.526520 0.000000 
0.585938 32.169487 0.000000 
0.585938 32.526520 0.000000 
0.195312 32.884898 0.000000 
0.195312 33.244824 0.000000 
0.585938 32.884898 0.000000 
0.585938 33.244824 0.000000 
0.195312 33.606078 0.000000 
0.195312 33.968927 0.000000 
0.585938 33.606078 0.000000 
0.585938 33.968927 0.000000 
0.195312 34.333124 0.000000 
0.195312 34.698966 0.000000 
0.585938 34.333124 0.000000 
0.585938 34.698966 0.000000 
0.195312 35.066176 0.000000 
0.195312 35.435079 0.000000 
0.585938 35.066176 0.000000 
0.585938 35.435079 0.000000 
0.195312 35.805374 0.000000 
0.195312 36.177408 0.000000 
0.585938 35.805374 0.000000 
0.585938 36.177408 0.000000 
0.195312 36.550866 0.000000 
0.195312 36.926107 0.000000 
0.585938 36.550866 0.000000 
0.585938 36.926107 0.000000 
0.195312 37.302772 0.000000 
0.195312 37.681236 0.000000 
0.585938 37.302772 0.000000 
0.585938 37.681236 0.000000 
0.195312 38.061213 0.000000 
0.195312 38.443062 0.000000 
0.585938 38.061213 0.000000 
0.585938 38.443062 0.000000 
0.195312 38.826410 0.000000 
0.195312 39.211786 0.000000 
0.585938 38.826410 0.000000 
0.585938 39.211786 0.000000 
0.195312 39.598638 0.000000 
0.195312 39.987178 0.000000 
0.585938 39.598638 0.000000 
0.585938 39.987178 0.000000 

POINT_DATA 256
SCALARS sigma_xx FLOAT 1
LOOKUP_TABLE default
0.000000
0.000000
0.000000
0.000000
-0.000000
-0.000000
-0.000000
-0.000000
0.000000
0.000000
0.000000
0.000000
0.000000
0.000000
0.000000
0.000000
-0.000000
0.000000
-0.000000
0.000000
0.000000
0.000000
0.000000
0.000000
0.000000
0.000000
0.000000
0.000000
0.000000
0.000000
0.000000
0.000000
0.000000
0.000000
0.000000
0.000000
-0.000000
0.000000
-0.000000
0.000000
0.000000
0.000000
0.000000
0.000000
0.000000
0.000000
0.000000
0.000000
0.000000
0.000000
0.000000
0.000000
0.000000
-0.000000
0.000000
-0.000000
0.000000
-0.000000
0.000000
-0.000000
-0.000000
-0.000000
0.000000
-0.000000
-0.000000
0.000000
-0.000000
0.000000
0.000000
-0.000000
0.000000
-0.000000
0.000000
0.000000
0.000000
0.000000
-0.000000
-0.000000
-0.000000
-0.000000
-0.000000
-0.000000
-0.000000
-0.000000
0.000000
-0.000000
0.000000
-0.000000
0.000000
0.000000
0.000000
0.000000
0.000000
-0.000000
0.000000
-0.000000
-0.000000
-0.000000
-0.000000
-0.000000
-0.000000
-0.000000
-0.000000
-0.000000
0.000000
-0.000000
0.000000
-0.000000
-0.000000
-0.000000
-0.000000
-0.000000
-0.000000
0.000000
-0.000000
0.000000
0.000000
0.000000
0.000000
0.000000
0.000000
-0.000000
0.000000
0.000000
-0.000000
-0.000000
-0.000000
-0.000000
0.000000
-0.000000
0.000000
-0.000000
-0.000000
0.000000
-0.000000
0.000000
-0.000000
0.000000
-0.000000
0.000000
-0.000000
-0.000000
-0.000000
-0.000000
-0.000000
-0.000000
-0.000000
-0.000000
-0.000000
-0.000000
-0.000000
-0.000000
-0.000000
-0.000000
-0.000000
-0.000000
-0.000000
-0.000000
-0.000000
-0.000000
-0.000000
0.000000
0.000000
0.000000
-0.000000
-0.000000
-0.000000
-0.000000
-0.000000
0.000000
-0.000000
-0.000000
-0.000000
-0.000000
-0.000000
-0.000000
-0.000000
-0.000000
-0.000000
-0.000000
-0.000000
-0.000000
-0.000000
-0.000000
0.000000
0.000000
0.000000
0.000000
-0.000000
-0.000000
-0.000000
-0.000000
0.000000
-0.000000
0.000000
-0.000000
-0.000000
-0.000000
-0.000000
-0.000000
-0.000000
0.000000
0.000000
0.000000
-0.000000
-0.000000
0.000000
-0.000000
0.000000
0.000000
0.000000
0.000000
-0.000000
-0.000000
-0.000000
-0.000000
0.000000
0.000000
0.000000
0.000000
-0.000000
0.000000
-0.000000
0.000000
-0.000000
0.000000
-0.000000
0.000000
-0.000000
-0.000000
-0.000000
-0.000000
-0.000000
-0.000000
-0.000000
-0.000000
-0.000000
0.000000
-0.000000
0.000000
0.000000
-0.000000
0.000000
-0.000000
-0.000000
-0.000000
-0.000000
-0.000000
0.000000
-0.000000
0.000000
-0.000000
0.000000
0.000000
0.000000
0.000000

SCALARS sigma_yy FLOAT 1
LOOKUP_TABLE default
-5954.931623
-5954.931623
-5954.931623
-5954.931623
-5879.558861
-5837.848053
-5879.558861
-5837.848053
-5791.252197
-5742.361486
-5791.252197
-5742.361486
-5691.421942
-5655.714106
-5691.421942
-5655.714106
-5595.401639
-5557.159550
-5595.401639
-5557.159550
-5506.876214
-5462.726861
-5506.876214
-5462.726861
-5409.011176
-5367.231870
-5409.011176
-5367.231870
-5312.857019
-5282.675434
-5312.857019
-5282.675434
-5228.681757
-5186.172652
-5228.681757
-5186.172652
-5126.994845
-5086.738062
-5126.994845
-5086.738062
-5032.528579
-4998.501713
-5032.528579
-4998.501713
-4936.855345
-4908.241596
-4936.855345
-4908.241596
-4845.952956
-4812.121595
-4845.952956
-4812.121595
-4747.757727
-4721.526653
-4747.757727
-4721.526653
-4650.591442
-4628.305706
-4650.591442
-4628.305706
-4560.255441
-4532.031514
-4560.255441
-4532.031514
-4471.010109
-4432.602288
-4471.010109
-4432.602288
-4384.019236
-4339.358404
-4384.019236
-4339.358404
-4289.570019
-4237.883287
-4289.570019
-4237.883287
-4196.687777
-4143.850103
-4196.687777
-4143.850103
-4105.869408
-4059.030373
-4105.869408
-4059.030373
-4001.860286
-3966.243588
-4001.860286
-3966.243588
-3894.114807
-3879.338486
-3894.114807
-3879.338486
-3813.598064
-3785.717804
-3813.598064
-3785.717804
-3724.717691
-3676.168610
-3724.717691
-3676.168610
-3633.033116
-3586.195516
-3633.033116
-3586.195516
-3538.757185
-3498.349305
-3538.757185
-3498.349305
-3430.651802
-3409.965255
-3430.651802
-3409.965255
-3339.869448
-3321.863906
-3339.869448
-3321.863906
-3250.726759
-3217.040749
-3250.726759
-3217.040749
-3156.914856
-3122.607373
-3156.914856
-3122.607373
-3066.209745
-3028.719504
-3066.209745
-3028.719504
-2963.454850
-2934.757863
-2963.454850
-2934.757863
-2874.938444
-2852.016042
-2874.938444
-2852.016042
-2782.666375
-2748.706621
-2782.666375
-2748.706621
-2688.194308
-2654.082204
-2688.194308
-2654.082204
-2599.774586
-2553.481610
-2599.774586
-2553.481610
-2508.902637
-2462.406797
-2508.902637
-2462.406797
-2409.897991
-2364.876679
-2409.897991
-2364.876679
-2322.853386
-2275.635277
-2322.853386
-2275.635277
-2228.800768
-2177.019352
-2228.800768
-2177.019352
-2134.398696
-2079.606152
-2134.398696
-2079.606152
-2039.693576
-1991.894681
-2039.693576
-1991.894681
-1950.154439
-1898.662141
-1950.154439
-1898.662141
-1850.812888
-1806.544406
-1850.812888
-1806.544406
-1750.658476
-1714.826120
-1750.658476
-1714.826120
-1655.388715
-1627.252522
-1655.388715
-1627.252522
-1562.646074
-1536.407848
-1562.646074
-1536.407848
-1467.160265
-1441.947823
-1467.160265
-1441.947823
-1372.288442
-1346.412295
-1372.288442
-1346.412295
-1278.700945
-1249.987403
-1278.700945
-1249.987403
-1185.994709
-1156.562979
-1185.994709
-1156.562979
-1095.483576
-1062.665684
-1095.483576
-1062.665684
-1000.403586
-968.829401
-1000.403586
-968.829401
-906.361257
-873.533806
-906.361257
-873.533806
-813.356233
-778.869106
-813.356233
-778.869106
-720.131998
-684.280305
-720.131998
-684.280305
-626.921444
-589.886036
-626.921444
-589.886036
-533.685143
-495.647608
-533.685143
-495.647608
-440.420345
-401.562648
-440.420345
-401.562648
-348.958459
-308.530665
-348.958459
-308.530665
-255.399726
-214.001179
-255.399726
-214.001179
-163.926181
-117.420257
-163.926181
-117.420257
-73.274983
-18.439805
-73.274983
-18.439805

SCALARS sigma_zz FLOAT 1
LOOKUP_TABLE default
0.000000
0.000000
0.000000
0.000000
0.000000
0.000000
0.000000
0.000000
0.000000
0.000000
0.000000
0.000000
0.000000
0.000000
0.000000
0.000000
0.000000
0.000000
0.000000
0.000000
0.000000
0.000000
0.000000
0.000000
0.000000
0.000000
0.000000
0.000000
0.000000
0.000000
0.000000
0.000000
0.000000
0.000000
0.000000
0.000000
0.000000
0.000000
0.000000
0.000000
0.000000
0.000000
0.000000
0.000000
0.000000
0.000000
0.000000
0.000000
0.000000
0.000000
0.000000
0.000000
0.000000
0.000000
0.000000
0.000000
0.000000
0.000000
0.000000
0.000000
0.000000
0.000000
0.000000
0.000000
0.000000
0.000000
0.000000
0.000000
0.000000
0.000000
0.000000
0.000000
0.000000
0.000000
0.000000
0.000000
0.000000
0.000000
0.000000
0.000000
0.000000
0.000000
0.000000
0.000000
0.000000
0.000000
0.000000
0.000000
0.000000
0.000000
0.000000
0.000000
0.000000
0.000000
0.000000
0.000000
0.000000
0.000000
0.000000
0.000000
0.000000
0.000000
0.000000
0.000000
0.000000
0.000000
0.000000
0.000000
0.000000
0.000000
0.000000
0.000000
0.000000
0.000000
0.000000
0.000000
0.000000
0.000000
0.000000
0.000000
0.000000
0.000000
0.000000
0.000000
0.000000
0.000000
0.000000
0.000000
0.000000
0.000000
0.000000
0.000000
0.000000
0.000000
0.000000
0.000000
0.000000
0.000000
0.000000
0.000000
0.000000
0.000000
0.000000
0.000000
0.000000
0.000000
0.000000
0.000000
0.000000
0.000000
0.000000
0.000000
0.000000
0.000000
0.000000
0.000000
0.000000
0.000000
0.000000
0.000000
0.000000
0.000000
0.000000
0.000000
0.000000
0.000000
0.000000
0.000000
0.000000
0.000000
0.000000
0.000000
0.000000
0.000000
0.000000
0.000000
0.000000
0.000000
0.000000
0.000000
0.000000
0.000000
0.000000
0.000000
0.000000
0.000000
0.000000
0.000000
0.000000
0.000000
0.000000
0.000000
0.000000
0.000000
0.000000
0.000000
0.000000
0.000000
0.000000
0.000000
0.000000
0.000000
0.000000
0.000000
0.000000
0.000000
0.000000
0.000000
0.000000
0.000000
0.000000
0.000000
0.000000
0.000000
0.000000
0.000000
0.000000
0.000000
0.000000
0.000000
0.000000
0.000000
0.000000
0.000000
0.000000
0.000000
0.000000
0.000000
0.000000
0.000000
0.000000
0.000000
0.000000
0.000000
0.000000
0.000000
0.000000
0.000000
0.000000
0.000000
0.000000
0.000000
0.000000
0.000000
0.000000
0.000000
0.000000
0.000000
0.000000
0.000000
0.000000
0.000000
0.000000
0.000000
0.000000
0.000000

SCALARS sigma_xy FLOAT 1
LOOKUP_TABLE default
0.000000
0.000000
0.000000
0.000000
-0.000000
-0.000000
-0.000000
-0.000000
0.000000
0.000000
0.000000
0.000000
0.000000
0.000000
0.000000
0.000000
-0.000000
0.000000
-0.000000
0.000000
0.000000
0.000000
0.000000
0.000000
0.000000
0.000000
0.000000
0.000000
0.000000
0.000000
0.000000
0.000000
0.000000
0.000000
0.000000
0.000000
-0.000000
0.000000
-0.000000
0.000000
0.000000
0.000000
0.000000
0.000000
0.000000
0.000000
0.000000
0.000000
0.000000
0.000000
0.000000
0.000000
0.000000
0.000000
0.000000
0.000000
0.000000
0.000000
0.000000
0.000000
0.000000
-0.000000
0.000000
-0.000000
-0.000000
0.000000
-0.000000
0.000000
0.000000
0.000000
0.000000
0.000000
0.000000
0.000000
0.000000
0.000000
-0.000000
-0.000000
-0.000000
-0.000000
0.000000
0.000000
0.000000
0.000000
0.000000
-0.000000
0.000000
-0.000000
0.000000
0.000000
0.000000
0.000000
0.000000
-0.000000
0.000000
-0.000000
-0.000000
0.000000
-0.000000
0.000000
0.000000
0.000000
0.000000
0.000000
0.000000
-0.000000
0.000000
-0.000000
-0.000000
-0.000000
-0.000000
-0.000000
0.000000
0.000000
0.000000
0.000000
0.000000
0.000000
0.000000
0.000000
0.000000
0.000000
0.000000
0.000000
-0.000000
-0.000000
-0.000000
-0.000000
0.000000
0.000000
0.000000
0.000000
0.000000
0.000000
0.000000
0.000000
-0.000000
0.000000
-0.000000
0.000000
0.000000
0.000000
0.000000
0.000000
-0.000000
0.000000
-0.000000
0.000000
0.000000
0.000000
0.000000
0.000000
-0.000000
-0.000000
-0.000000
-0.000000
0.000000
0.000000
0.000000
0.000000
0.000000
0.000000
0.000000
0.000000
-0.000000
-0.000000
-0.000000
-0.000000
-0.000000
0.000000
-0.000000
-0.000000
0.000000
0.000000
0.000000
0.000000
-0.000000
-0.000000
-0.000000
-0.000000
-0.000000
0.000000
-0.000000
0.000000
0.000000
0.000000
0.000000
0.000000
0.000000
0.000000
0.000000
0.000000
0.000000
-0.000000
0.000000
-0.000000
-0.000000
0.000000
-0.000000
0.000000
-0.000000
0.000000
0.000000
0.000000
0.000000
0.000000
0.000000
0.000000
0.000000
0.000000
0.000000
0.000000
-0.000000
-0.000000
-0.000000
0.000000
0.000000
0.000000
0.000000
0.000000
-0.000000
0.000000
-0.000000
0.000000
0.000000
0.000000
0.000000
0.000000
-0.000000
-0.000000
-0.000000
-0.000000
-0.000000
-0.000000
-0.000000
-0.000000
0.000000
0.000000
0.000000
0.000000
0.000000
0.000000
0.000000
0.000000
-0.000000
-0.000000
-0.000000
-0.000000
0.000000
0.000000
0.000000
0.000000
0.000000
0.000000
0.000000
0.000000

SCALARS sigma_yz FLOAT 1
LOOKUP_TABLE default
0.000000
0.000000
0.000000
0.000000
0.000000
0.000000
0.000000
0.000000
0.000000
0.000000
0.000000
0.000000
0.000000
0.000000
0.000000
0.000000
0.000000
0.000000
0.000000
0.000000
0.000000
0.000000
0.000000
0.000000
0.000000
0.000000
0.000000
0.000000
0.000000
0.000000
0.000000
0.000000
0.000000
0.000000
0.000000
0.000000
0.000000
0.000000
0.000000
0.000000
0.000000
0.000000
0.000000
0.000000
0.000000
0.000000
0.000000
0.000000
0.000000
0.000000
0.000000
0.000000
0.000000
0.000000
0.000000
0.000000
0.000000
0.000000
0.000000
0.000000
0.000000
0.000000
0.000000
0.000000
0.000000
0.000000
0.000000
0.000000
0.000000
0.000000
0.000000
0.000000
0.000000
0.000000
0.000000
0.000000
0.000000
0.000000
0.000000
0.000000
0.000000
0.000000
0.000000
0.000000
0.000000
0.000000
0.000000
0.000000
0.000000
0.000000
0.000000
0.000000
0.000000
0.000000
0.000000
0.000000
0.000000
0.000000
0.000000
0.000000
0.000000
0.000000
0.000000
0.000000
0.000000
0.000000
0.000000
0.000000
0.000000
0.000000
0.000000
0.000000
0.000000
0.000000
0.000000
0.000000
0.000000
0.000000
0.000000
0.000000
0.000000
0.000000
0.000000
0.000000
0.000000
0.000000
0.000000
0.000000
0.000000
0.000000
0.000000
0.000000
0.000000
0.000000
0.000000
0.000000
0.000000
0.000000
0.000000
0.000000
0.000000
0.000000
0.000000
0.000000
0.000000
0.000000
0.000000
0.000000
0.000000
0.000000
0.000000
0.000000
0.000000
0.000000
0.000000
0.000000
0.000000
0.000000
0.000000
0.000000
0.000000
0.000000
0.000000
0.000000
0.000000
0.000000
0.000000
0.000000
0.000000
0.000000
0.000000
0.000000
0.000000
0.000000
0.000000
0.000000
0.000000
0.000000
0.000000
0.000000
0.000000
0.000000
0.000000
0.000000
0.000000
0.000000
0.000000
0.000000
0.000000
0.000000
0.000000
0.000000
0.000000
0.000000
0.000000
0.000000
0.000000
0.000000
0.000000
0.000000
0.000000
0.000000
0.000000
0.000000
0.000000
0.000000
0.000000
0.000000
0.000000
0.000000
0.000000
0.000000
0.000000
0.000000
0.000000
0.000000
0.000000
0.000000
0.000000
0.000000
0.000000
0.000000
0.000000
0.000000
0.000000
0.000000
0.000000
0.000000
0.000000
0.000000
0.000000
0.000000
0.000000
0.000000
0.000000
0.000000
0.000000
0.000000
0.000000
0.000000
0.000000
0.000000
0.000000
0.000000
0.000000
0.000000
0.000000
0.000000
0.000000
0.000000
0.000000
0.000000
0.000000
0.000000
0.000000
0.000000

SCALARS sigma_zx FLOAT 1
LOOKUP_TABLE default
0.000000
0.000000
0.000000
0.000000
0.000000
0.000000
0.000000
0.000000
0.000000
0.000000
0.000000
0.000000
0.000000
0.000000
0.000000
0.000000
0.000000
0.000000
0.000000
0.000000
0.000000
0.000000
0.000000
0.000000
0.000000
0.000000
0.000000
0.000000
0.000000
0.000000
0.000000
0.000000
0.000000
0.000000
0.000000
0.000000
0.000000
0.000000
0.000000
0.000000
0.000000
0.000000
0.000000
0.000000
0.000000
0.000000
0.000000
0.000000
0.000000
0.000000
0.000000
0.000000
0.000000
0.000000
0.000000
0.000000
0.000000
0.000000
0.000000
0.000000
0.000000
0.000000
0.000000
0.000000
0.000000
0.000000
0.000000
0.000000
0.000000
0.000000
0.000000
0.000000
0.000000
0.000000
0.000000
0.000000
0.000000
0.000000
0.000000
0.000000
0.000000
0.000000
0.000000
0.000000
0.000000
0.000000
0.000000
0.000000
0.000000
0.000000
0.000000
0.000000
0.000000
0.000000
0.000000
0.000000
0.000000
0.000000
0.000000
0.000000
0.000000
0.000000
0.000000
0.000000
0.000000
0.000000
0.000000
0.000000
0.000000
0.000000
0.000000
0.000000
0.000000
0.000000
0.000000
0.000000
0.000000
0.000000
0.000000
0.000000
0.000000
0.000000
0.000000
0.000000
0.000000
0.000000
0.000000
0.000000
0.000000
0.000000
0.000000
0.000000
0.000000
0.000000
0.000000
0.000000
0.000000
0.000000
0.000000
0.000000
0.000000
0.000000
0.000000
0.000000
0.000000
0.000000
0.000000
0.000000
0.000000
0.000000
0.000000
0.000000
0.000000
0.000000
0.000000
0.000000
0.000000
0.000000
0.000000
0.000000
0.000000
0.000000
0.000000
0.000000
0.000000
0.000000
0.000000
0.000000
0.000000
0.000000
0.000000
0.000000
0.000000
0.000000
0.000000
0.000000
0.000000
0.000000
0.000000
0.000000
0.000000
0.000000
0.000000
0.000000
0.000000
0.000000
0.000000
0.000000
0.000000
0.000000
0.000000
0.000000
0.000000
0.000000
0.000000
0.000000
0.000000
0.000000
0.000000
0.000000
0.000000
0.000000
0.000000
0.000000
0.000000
0.000000
0.000000
0.000000
0.000000
0.000000
0.000000
0.000000
0.000000
0.000000
0.000000
0.000000
0.000000
0.000000
0.000000
0.000000
0.000000
0.000000
0.000000
0.000000
0.000000
0.000000
0.000000
0.000000
0.000000
0.000000
0.000000
0.000000
0.000000
0.000000
0.000000
0.000000
0.000000
0.000000
0.000000
0.000000
0.000000
0.000000
0.000000
0.000000
0.000000
0.000000
0.000000
0.000000
0.000000
0.000000
0.000000
0.000000
0.000000
0.000000
0.000000
0.000000

SCALARS u_x FLOAT 1
LOOKUP_TABLE default
0.000000
0.000000
0.000000
0.000000
0.000000
0.000000
0.000000
0.000000
0.000000
0.000000
0.000000
0.000000
0.000000
0.000000
0.000000
0.000000
0.000000
0.000000
0.000000
0.000000
0.000000
0.000000
0.000000
0.000000
0.000000
0.000000
0.000000
0.000000
0.000000
0.000000
0.000000
0.000000
0.000000
0.000000
0.000000
0.000000
0.000000
0.000000
0.000000
0.000000
0.000000
0.000000
0.000000
0.000000
0.000000
0.000000
0.000000
0.000000
0.000000
0.000000
0.000000
0.000000
0.000000
0.000000
0.000000
0.000000
0.000000
0.000000
0.000000
0.000000
0.000000
0.000000
0.000000
0.000000
0.000000
0.000000
0.000000
0.000000
0.000000
0.000000
0.000000
0.000000
0.000000
0.000000
0.000000
0.000000
0.000000
0.000000
0.000000
0.000000
0.000000
0.000000
0.000000
0.000000
0.000000
0.000000
0.000000
0.000000
0.000000
0.000000
0.000000
0.000000
0.000000
0.000000
0.000000
0.000000
0.000000
0.000000
0.000000
0.000000
0.000000
0.000000
0.000000
0.000000
0.000000
0.000000
0.000000
0.000000
0.000000
0.000000
0.000000
0.000000
0.000000
0.000000
0.000000
0.000000
0.000000
0.000000
0.000000
0.000000
0.000000
0.000000
0.000000
0.000000
0.000000
0.000000
0.000000
0.000000
0.000000
0.000000
0.000000
0.000000
0.000000
0.000000
0.000000
0.000000
0.000000
0.000000
0.000000
0.000000
0.000000
0.000000
0.000000
0.000000
0.000000
0.000000
0.000000
0.000000
0.000000
0.000000
0.000000
0.000000
0.000000
0.000000
0.000000
0.000000
0.000000
0.000000
0.000000
0.000000
0.000000
0.000000
0.000000
0.000000
0.000000
0.000000
0.000000
0.000000
0.000000
0.000000
0.000000
0.000000
0.000000
0.000000
0.000000
0.000000
0.000000
0.000000
0.000000
0.000000
0.000000
0.000000
0.000000
0.000000
0.000000
0.000000
0.000000
0.000000
0.000000
0.000000
0.000000
0.000000
0.000000
0.000000
0.000000
0.000000
0.000000
0.000000
0.000000
0.000000
0.000000
0.000000
0.000000
0.000000
0.000000
0.000000
0.000000
0.000000
0.000000
0.000000
0.000000
0.000000
0.000000
0.000000
0.000000
0.000000
0.000000
0.000000
0.000000
0.000000
0.000000
0.000000
0.000000
0.000000
0.000000
0.000000
0.000000
0.000000
0.000000
0.000000
0.000000
0.000000
0.000000
0.000000
0.000000
0.000000
0.000000
0.000000
0.000000
0.000000
0.000000
0.000000
0.000000
0.000000
0.000000
0.000000
0.000000
0.000000
0.000000
0.000000
0.000000
0.000000
0.000000
0.000000
0.000000
0.000000

SCALARS u_y FLOAT 1
LOOKUP_TABLE default
-0.064313
-0.192939
-0.064313
-0.192939
-0.321204
-0.448499
-0.321204
-0.448499
-0.575404
-0.701627
-0.575404
-0.701627
-0.827205
-0.952238
-0.827205
-0.952238
-1.076656
-1.200378
-1.076656
-1.200378
-1.323554
-1.446076
-1.323554
-1.446076
-1.567962
-1.689187
-1.567962
-1.689187
-1.809745
-1.929775
-1.809745
-1.929775
-2.049215
-2.167991
-2.049215
-2.167991
-2.286022
-2.403380
-2.286022
-2.403380
-2.519996
-2.636098
-2.519996
-2.636098
-2.751461
-2.866203
-2.751461
-2.866203
-2.980216
-3.093591
-2.980216
-3.093591
-3.206211
-3.318218
-3.206211
-3.318218
-3.429437
-3.539957
-3.429437
-3.539957
-3.649862
-3.758954
-3.649862
-3.758954
-3.867447
-3.975027
-3.867447
-3.975027
-4.082122
-4.188307
-4.082122
-4.188307
-4.293886
-4.398531
-4.293886
-4.398531
-4.502530
-4.605776
-4.502530
-4.605776
-4.708191
-4.810084
-4.708191
-4.810084
-4.910893
-5.011153
-4.910893
-5.011153
-5.110308
-5.208863
-5.110308
-5.208863
-5.306750
-5.403744
-5.306750
-5.403744
-5.500093
-5.595337
-5.500093
-5.595337
-5.689851
-5.783619
-5.689851
-5.783619
-5.876448
-5.968657
-5.876448
-5.968657
-6.059643
-6.150007
-6.059643
-6.150007
-6.239464
-6.328152
-6.239464
-6.328152
-6.416058
-6.502859
-6.416058
-6.502859
-6.588846
-6.673894
-6.588846
-6.673894
-6.758107
-6.841410
-6.758107
-6.841410
-6.923636
-7.004976
-6.923636
-7.004976
-7.085439
-7.165051
-7.085439
-7.165051
-7.243864
-7.321395
-7.243864
-7.321395
-7.398161
-7.473736
-7.398161
-7.473736
-7.548595
-7.622175
-7.548595
-7.622175
-7.694945
-7.766658
-7.694945
-7.766658
-7.837345
-7.906891
-7.837345
-7.906891
-7.975553
-8.043163
-7.975553
-8.043163
-8.109772
-8.175181
-8.109772
-8.175181
-8.239562
-8.302786
-8.239562
-8.302786
-8.364869
-8.426024
-8.364869
-8.426024
-8.486001
-8.545012
-8.486001
-8.545012
-8.602574
-8.659275
-8.602574
-8.659275
-8.714415
-8.768702
-8.714415
-8.768702
-8.821497
-8.873449
-8.821497
-8.873449
-8.923973
-8.973520
-8.923973
-8.973520
-9.021626
-9.068630
-9.021626
-9.068630
-9.114229
-9.158608
-9.114229
-9.158608
-9.201649
-9.243360
-9.201649
-9.243360
-9.283764
-9.322820
-9.283764
-9.322820
-9.360634
-9.397031
-9.360634
-9.397031
-9.432075
-9.465667
-9.432075
-9.465667
-9.497914
-9.528613
-9.497914
-9.528613
-9.557985
-9.585761
-9.557985
-9.585761
-9.612189
-9.636971
-9.612189
-9.636971
-9.660386
-9.682109
-9.660386
-9.682109
-9.702438
-9.721029
-9.702438
-9.721029
-9.738197
-9.753581
-9.738197
-9.753581
-9.767541
-9.779701
-9.767541
-9.779701
-9.790350
-9.799126
-9.790350
-9.799126
-9.806402
-9.811651
-9.806402
-9.811651
-9.815425
-9.817509
-9.815425
-9.817509

