# vtk DataFile Version 2.0
MATLAB generated vtk file, WMC
ASCII
DATASET UNSTRUCTURED_GRID
POINTS 256 double
0.195312 0.087685 0.000000 
0.195312 0.263055 0.000000 
0.585938 0.087685 0.000000 
0.585938 0.263055 0.000000 
0.195312 0.438666 0.000000 
0.195312 0.615074 0.000000 
0.585938 0.438666 0.000000 
0.585938 0.615074 0.000000 
0.195312 0.792242 0.000000 
0.195312 0.970088 0.000000 
0.585938 0.792242 0.000000 
0.585938 0.970088 0.000000 
0.195312 1.148463 0.000000 
0.195312 1.327481 0.000000 
0.585938 1.148463 0.000000 
0.585938 1.327481 0.000000 
0.195312 1.507181 0.000000 
0.195312 1.687610 0.000000 
0.585938 1.507181 0.000000 
0.585938 1.687610 0.000000 
0.195312 1.868640 0.000000 
0.195312 2.050335 0.000000 
0.585938 1.868640 0.000000 
0.585938 2.050335 0.000000 
0.195312 2.232707 0.000000 
0.195312 2.415821 0.000000 
0.585938 2.232707 0.000000 
0.585938 2.415821 0.000000 
0.195312 2.599566 0.000000 
0.195312 2.784002 0.000000 
0.585938 2.599566 0.000000 
0.585938 2.784002 0.000000 
0.195312 2.969160 0.000000 
0.195312 3.155059 0.000000 
0.585938 2.969160 0.000000 
0.585938 3.155059 0.000000 
0.195312 3.341649 0.000000 
0.195312 3.528934 0.000000 
0.585938 3.341649 0.000000 
0.585938 3.528934 0.000000 
0.195312 3.716992 0.000000 
0.195312 3.905802 0.000000 
0.585938 3.716992 0.000000 
0.585938 3.905802 0.000000 
0.195312 4.095352 0.000000 
0.195312 4.285587 0.000000 
0.585938 4.095352 0.000000 
0.585938 4.285587 0.000000 
0.195312 4.476623 0.000000 
0.195312 4.668456 0.000000 
0.585938 4.476623 0.000000 
0.585938 4.668456 0.000000 
0.195312 4.861088 0.000000 
0.195312 5.054402 0.000000 
0.585938 4.861088 0.000000 
0.585938 5.054402 0.000000 
0.195312 5.248568 0.000000 
0.195312 5.443530 0.000000 
0.585938 5.248568 0.000000 
0.585938 5.443530 0.000000 
0.195312 5.639278 0.000000 
0.195312 5.835862 0.000000 
0.585938 5.639278 0.000000 
0.585938 5.835862 0.000000 
0.195312 6.033308 0.000000 
0.195312 6.231690 0.000000 
0.585938 6.033308 0.000000 
0.585938 6.231690 0.000000 
0.195312 6.430762 0.000000 
0.195312 6.630742 0.000000 
0.585938 6.430762 0.000000 
0.585938 6.630742 0.000000 
0.195312 6.831532 0.000000 
0.195312 7.033251 0.000000 
0.585938 6.831532 0.000000 
0.585938 7.033251 0.000000 
0.195312 7.235809 0.000000 
0.195312 7.439289 0.000000 
0.585938 7.235809 0.000000 
0.585938 7.439289 0.000000 
0.195312 7.643803 0.000000 
0.195312 7.849124 0.000000 
0.585938 7.643803 0.000000 
0.585938 7.849124 0.000000 
0.195312 8.055502 0.000000 
0.195312 8.262642 0.000000 
0.585938 8.055502 0.000000 
0.585938 8.262642 0.000000 
0.195312 8.470854 0.000000 
0.195312 8.679918 0.000000 
0.585938 8.470854 0.000000 
0.585938 8.679918 0.000000 
0.195312 8.889964 0.000000 
0.195312 9.101057 0.000000 
0.585938 8.889964 0.000000 
0.585938 9.101057 0.000000 
0.195312 9.313123 0.000000 
0.195312 9.526298 0.000000 
0.585938 9.313123 0.000000 
0.585938 9.526298 0.000000 
0.195312 9.740342 0.000000 
0.195312 9.955459 0.000000 
0.585938 9.740342 0.000000 
0.585938 9.955459 0.000000 
0.195312 10.171726 0.000000 
0.195312 10.388916 0.000000 
0.585938 10.171726 0.000000 
0.585938 10.388916 0.000000 
0.195312 10.607373 0.000000 
0.195312 10.826766 0.000000 
0.585938 10.607373 0.000000 
0.585938 10.826766 0.000000 
0.195312 11.047368 0.000000 
0.195312 11.269012 0.000000 
0.585938 11.047368 0.000000 
0.585938 11.269012 0.000000 
0.195312 11.491753 0.000000 
0.195312 11.715752 0.000000 
0.585938 11.491753 0.000000 
0.585938 11.715752 0.000000 
0.195312 11.940818 0.000000 
0.195312 12.167165 0.000000 
0.585938 11.940818 0.000000 
0.585938 12.167165 0.000000 
0.195312 12.394633 0.000000 
0.195312 12.623356 0.000000 
0.585938 12.394633 0.000000 
0.585938 12.623356 0.000000 
0.195312 12.853425 0.000000 
0.195312 13.084568 0.000000 
0.585938 12.853425 0.000000 
0.585938 13.084568 0.000000 
0.195312 13.317125 0.000000 
0.195312 13.550855 0.000000 
0.585938 13.317125 0.000000 
0.585938 13.550855 0.000000 
0.195312 13.785851 0.000000 
0.195312 14.022426 0.000000 
0.585938 13.785851 0.000000 
0.585938 14.022426 0.000000 
0.195312 14.260019 0.000000 
0.195312 14.499218 0.000000 
0.585938 14.260019 0.000000 
0.585938 14.499218 0.000000 
0.195312 14.739696 0.000000 
0.195312 14.981666 0.000000 
0.585938 14.739696 0.000000 
0.585938 14.981666 0.000000 
0.195312 15.225106 0.000000 
0.195312 15.469916 0.000000 
0.585938 15.225106 0.000000 
0.585938 15.469916 0.000000 
0.195312 15.716323 0.000000 
0.195312 15.964187 0.000000 
0.585938 15.716323 0.000000 
0.585938 15.964187 0.000000 
0.195312 16.213460 0.000000 
0.195312 16.464543 0.000000 
0.585938 16.213460 0.000000 
0.585938 16.464543 0.000000 
0.195312 16.716980 0.000000 
0.195312 16.971205 0.000000 
0.585938 16.716980 0.000000 
0.585938 16.971205 0.000000 
0.195312 17.226872 0.000000 
0.195312 17.484184 0.000000 
0.585938 17.226872 0.000000 
0.585938 17.484184 0.000000 
0.195312 17.743478 0.000000 
0.195312 18.004092 0.000000 
0.585938 17.743478 0.000000 
0.585938 18.004092 0.000000 
0.195312 18.266826 0.000000 
0.195312 18.531077 0.000000 
0.585938 18.266826 0.000000 
0.585938 18.531077 0.000000 
0.195312 18.797379 0.000000 
0.195312 19.065422 0.000000 
0.585938 18.797379 0.000000 
0.585938 19.065422 0.000000 
0.195312 19.335470 0.000000 
0.195312 19.607424 0.000000 
0.585938 19.335470 0.000000 
0.585938 19.607424 0.000000 
0.195312 19.881262 0.000000 
0.195312 20.157115 0.000000 
0.585938 19.881262 0.000000 
0.585938 20.157115 0.000000 
0.195312 20.435239 0.000000 
0.195312 20.715152 0.000000 
0.585938 20.435239 0.000000 
0.585938 20.715152 0.000000 
0.195312 20.997777 0.000000 
0.195312 21.282052 0.000000 
0.585938 20.997777 0.000000 
0.585938 21.282052 0.000000 
0.195312 21.568852 0.000000 
0.195312 21.857498 0.000000 
0.585938 21.568852 0.000000 
0.585938 21.857498 0.000000 
0.195312 22.148532 0.000000 
0.195312 22.442180 0.000000 
0.585938 22.148532 0.000000 
0.585938 22.442180 0.000000 
0.195312 22.738145 0.000000 
0.195312 23.036980 0.000000 
0.585938 22.738145 0.000000 
0.585938 23.036980 0.000000 
0.195312 23.338059 0.000000 
0.195312 23.642031 0.000000 
0.585938 23.338059 0.000000 
0.585938 23.642031 0.000000 
0.195312 23.948315 0.000000 
0.195312 24.257389 0.000000 
0.585938 23.948315 0.000000 
0.585938 24.257389 0.000000 
0.195312 24.569493 0.000000 
0.195312 24.884420 0.000000 
0.585938 24.569493 0.000000 
0.585938 24.884420 0.000000 
0.195312 25.202423 0.000000 
0.195312 25.523094 0.000000 
0.585938 25.202423 0.000000 
0.585938 25.523094 0.000000 
0.195312 25.847317 0.000000 
0.195312 26.174781 0.000000 
0.585938 25.847317 0.000000 
0.585938 26.174781 0.000000 
0.195312 26.505499 0.000000 
0.195312 26.839441 0.000000 
0.585938 26.505499 0.000000 
0.585938 26.839441 0.000000 
0.195312 27.177069 0.000000 
0.195312 27.518655 0.000000 
0.585938 27.177069 0.000000 
0.585938 27.518655 0.000000 
0.195312 27.863505 0.000000 
0.195312 28.212805 0.000000 
0.585938 27.863505 0.000000 
0.585938 28.212805 0.000000 
0.195312 28.565417 0.000000 
0.195312 28.922582 0.000000 
0.585938 28.565417 0.000000 
0.585938 28.922582 0.000000 
0.195312 29.283396 0.000000 
0.195312 29.649456 0.000000 
0.585938 29.283396 0.000000 
0.585938 29.649456 0.000000 
0.195312 30.019293 0.000000 
0.195312 30.394884 0.000000 
0.585938 30.019293 0.000000 
0.585938 30.394884 0.000000 
0.195312 30.774404 0.000000 
0.195312 31.159090 0.000000 
0.585938 30.774404 0.000000 
0.585938 31.159090 0.000000 

POINT_DATA 256
SCALARS sigma_xx FLOAT 1
LOOKUP_TABLE default
0.000000
0.000000
0.000000
0.000000
0.000000
-0.000000
0.000000
-0.000000
0.000000
0.000000
0.000000
0.000000
0.000000
0.000000
0.000000
0.000000
-0.000000
0.000000
-0.000000
0.000000
-0.000000
-0.000000
-0.000000
-0.000000
0.000000
0.000000
0.000000
0.000000
-0.000000
-0.000000
-0.000000
-0.000000
0.000000
0.000000
0.000000
0.000000
-0.000000
-0.000000
-0.000000
-0.000000
-0.000000
-0.000000
-0.000000
-0.000000
-0.000000
0.000000
-0.000000
-0.000000
-0.000000
0.000000
-0.000000
0.000000
-0.000000
-0.000000
-0.000000
-0.000000
0.000000
-0.000000
0.000000
-0.000000
-0.000000
0.000000
-0.000000
0.000000
-0.000000
-0.000000
-0.000000
-0.000000
0.000000
-0.000000
0.000000
-0.000000
-0.000000
0.000000
-0.000000
-0.000000
-0.000000
-0.000000
-0.000000
-0.000000
-0.000000
0.000000
-0.000000
0.000000
0.000000
-0.000000
0.000000
-0.000000
-0.000000
0.000000
-0.000000
-0.000000
0.000000
-0.000000
0.000000
-0.000000
-0.000000
0.000000
-0.000000
0.000000
-0.000000
-0.000000
-0.000000
-0.000000
-0.000000
-0.000000
-0.000000
-0.000000
-0.000000
-0.000000
-0.000000
-0.000000
-0.000000
0.000000
-0.000000
0.000000
0.000000
0.000000
0.000000
0.000000
-0.000000
0.000000
-0.000000
-0.000000
0.000000
0.000000
0.000000
0.000000
-0.000000
-0.000000
0.000000
-0.000000
-0.000000
-0.000000
-0.000000
-0.000000
-0.000000
-0.000000
-0.000000
-0.000000
0.000000
-0.000000
0.000000
-0.000000
-0.000000
-0.000000
-0.000000
-0.000000
-0.000000
-0.000000
-0.000000
-0.000000
-0.000000
-0.000000
-0.000000
-0.000000
-0.000000
0.000000
-0.000000
0.000000
-0.000000
0.000000
-0.000000
0.000000
-0.000000
-0.000000
-0.000000
-0.000000
0.000000
0.000000
0.000000
0.000000
0.000000
-0.000000
0.000000
-0.000000
-0.000000
-0.000000
-0.000000
-0.000000
-0.000000
-0.000000
-0.000000
-0.000000
-0.000000
-0.000000
-0.000000
-0.000000
-0.000000
-0.000000
-0.000000
0.000000
-0.000000
-0.000000
-0.000000
-0.000000
-0.000000
-0.000000
-0.000000
-0.000000
-0.000000
-0.000000
-0.000000
-0.000000
-0.000000
-0.000000
0.000000
-0.000000
-0.000000
0.000000
0.000000
0.000000
-0.000000
-0.000000
-0.000000
-0.000000
-0.000000
-0.000000
0.000000
-0.000000
-0.000000
-0.000000
-0.000000
0.000000
0.000000
0.000000
0.000000
0.000000
0.000000
-0.000000
0.000000
-0.000000
-0.000000
-0.000000
-0.000000
0.000000
-0.000000
-0.000000
-0.000000
-0.000000
0.000000
-0.000000
-0.000000
-0.000000
-0.000000
-0.000000
-0.000000
-0.000000
0.000000
-0.000000
-0.000000
-0.000000
0.000000
0.000000
0.000000
0.000000

SCALARS sigma_yy FLOAT 1
LOOKUP_TABLE default
-17838.460349
-17838.460349
-17838.460349
-17838.460349
-17693.071264
-17525.164393
-17693.071264
-17525.164393
-17338.421492
-17234.939279
-17338.421492
-17234.939279
-17089.500000
-16961.198225
-17089.500000
-16961.198225
-16791.371751
-16663.712688
-16791.371751
-16663.712688
-16521.893973
-16393.723647
-16521.893973
-16393.723647
-16231.708242
-16103.024846
-16231.708242
-16103.024846
-15959.086177
-15827.332129
-15959.086177
-15827.332129
-15666.759401
-15541.035116
-15666.759401
-15541.035116
-15394.066728
-15269.377751
-15394.066728
-15269.377751
-15105.602585
-14976.032597
-15105.602585
-14976.032597
-14826.937257
-14714.014928
-14826.937257
-14714.014928
-14546.208844
-14414.514853
-14546.208844
-14414.514853
-14265.990339
-14145.822699
-14265.990339
-14145.822699
-13987.651824
-13864.781077
-13987.651824
-13864.781077
-13702.585749
-13579.926282
-13702.585749
-13579.926282
-13419.455504
-13280.627262
-13419.455504
-13280.627262
-13149.650844
-13019.848692
-13149.650844
-13019.848692
-12872.256674
-12729.717872
-12872.256674
-12729.717872
-12593.156319
-12445.572391
-12593.156319
-12445.572391
-12287.967824
-12162.007033
-12287.967824
-12162.007033
-12015.999839
-11892.360441
-12015.999839
-11892.360441
-11726.635912
-11623.013893
-11726.635912
-11623.013893
-11454.705436
-11322.833285
-11454.705436
-11322.833285
-11175.966429
-11037.437164
-11175.966429
-11037.437164
-10905.089173
-10759.455559
-10905.089173
-10759.455559
-10611.481860
-10480.334993
-10611.481860
-10480.334993
-10332.353251
-10201.486100
-10332.353251
-10201.486100
-10038.895737
-9931.622851
-10038.895737
-9931.622851
-9763.430708
-9638.273308
-9763.430708
-9638.273308
-9492.139580
-9354.083326
-9492.139580
-9354.083326
-9204.935633
-9077.219677
-9204.935633
-9077.219677
-8915.067802
-8804.369769
-8915.067802
-8804.369769
-8635.947389
-8520.109509
-8635.947389
-8520.109509
-8354.852252
-8234.289267
-8354.852252
-8234.289267
-8091.795266
-7944.945336
-8091.795266
-7944.945336
-7807.808435
-7656.075496
-7807.808435
-7656.075496
-7524.371062
-7386.355589
-7524.371062
-7386.355589
-7225.698366
-7110.995665
-7225.698366
-7110.995665
-6955.523523
-6811.181802
-6955.523523
-6811.181802
-6689.313460
-6529.003345
-6689.313460
-6529.003345
-6414.707106
-6250.170592
-6414.707106
-6250.170592
-6120.722697
-5982.551886
-6120.722697
-5982.551886
-5832.251369
-5703.777161
-5832.251369
-5703.777161
-5545.278650
-5418.465289
-5545.278650
-5418.465289
-5271.705073
-5133.342015
-5271.705073
-5133.342015
-5002.432633
-4845.872797
-5002.432633
-4845.872797
-4708.509061
-4569.571823
-4708.509061
-4569.571823
-4403.472584
-4306.431426
-4403.472584
-4306.431426
-4133.604111
-4039.059640
-4133.604111
-4039.059640
-3857.730173
-3742.220666
-3857.730173
-3742.220666
-3575.168605
-3443.170010
-3575.168605
-3443.170010
-3300.518420
-3163.653835
-3300.518420
-3163.653835
-3027.858326
-2887.729267
-3027.858326
-2887.729267
-2735.717955
-2598.996053
-2735.717955
-2598.996053
-2462.833785
-2338.109309
-2462.833785
-2338.109309
-2160.512415
-2045.597407
-2160.512415
-2045.597407
-1890.246352
-1776.679169
-1890.246352
-1776.679169
-1593.694185
-1486.890732
-1593.694185
-1486.890732
-1321.733092
-1198.797073
-1321.733092
-1198.797073
-1052.636819
-925.441917
-1052.636819
-925.441917
-773.072829
-634.970058
-773.072829
-634.970058
-499.084442
-345.852678
-499.084442
-345.852678
-218.384902
-48.891736
-218.384902
-48.891736

SCALARS sigma_zz FLOAT 1
LOOKUP_TABLE default
0.000000
0.000000
0.000000
0.000000
0.000000
0.000000
0.000000
0.000000
0.000000
0.000000
0.000000
0.000000
0.000000
0.000000
0.000000
0.000000
0.000000
0.000000
0.000000
0.000000
0.000000
0.000000
0.000000
0.000000
0.000000
0.000000
0.000000
0.000000
0.000000
0.000000
0.000000
0.000000
0.000000
0.000000
0.000000
0.000000
0.000000
0.000000
0.000000
0.000000
0.000000
0.000000
0.000000
0.000000
0.000000
0.000000
0.000000
0.000000
0.000000
0.000000
0.000000
0.000000
0.000000
0.000000
0.000000
0.000000
0.000000
0.000000
0.000000
0.000000
0.000000
0.000000
0.000000
0.000000
0.000000
0.000000
0.000000
0.000000
0.000000
0.000000
0.000000
0.000000
0.000000
0.000000
0.000000
0.000000
0.000000
0.000000
0.000000
0.000000
0.000000
0.000000
0.000000
0.000000
0.000000
0.000000
0.000000
0.000000
0.000000
0.000000
0.000000
0.000000
0.000000
0.000000
0.000000
0.000000
0.000000
0.000000
0.000000
0.000000
0.000000
0.000000
0.000000
0.000000
0.000000
0.000000
0.000000
0.000000
0.000000
0.000000
0.000000
0.000000
0.000000
0.000000
0.000000
0.000000
0.000000
0.000000
0.000000
0.000000
0.000000
0.000000
0.000000
0.000000
0.000000
0.000000
0.000000
0.000000
0.000000
0.000000
0.000000
0.000000
0.000000
0.000000
0.000000
0.000000
0.000000
0.000000
0.000000
0.000000
0.000000
0.000000
0.000000
0.000000
0.000000
0.000000
0.000000
0.000000
0.000000
0.000000
0.000000
0.000000
0.000000
0.000000
0.000000
0.000000
0.000000
0.000000
0.000000
0.000000
0.000000
0.000000
0.000000
0.000000
0.000000
0.000000
0.000000
0.000000
0.000000
0.000000
0.000000
0.000000
0.000000
0.000000
0.000000
0.000000
0.000000
0.000000
0.000000
0.000000
0.000000
0.000000
0.000000
0.000000
0.000000
0.000000
0.000000
0.000000
0.000000
0.000000
0.000000
0.000000
0.000000
0.000000
0.000000
0.000000
0.000000
0.000000
0.000000
0.000000
0.000000
0.000000
0.000000
0.000000
0.000000
0.000000
0.000000
0.000000
0.000000
0.000000
0.000000
0.000000
0.000000
0.000000
0.000000
0.000000
0.000000
0.000000
0.000000
0.000000
0.000000
0.000000
0.000000
0.000000
0.000000
0.000000
0.000000
0.000000
0.000000
0.000000
0.000000
0.000000
0.000000
0.000000
0.000000
0.000000
0.000000
0.000000
0.000000
0.000000
0.000000
0.000000
0.000000
0.000000
0.000000
0.000000
0.000000
0.000000
0.000000
0.000000
0.000000
0.000000
0.000000
0.000000
0.000000
0.000000

SCALARS sigma_xy FLOAT 1
LOOKUP_TABLE default
0.000000
0.000000
0.000000
0.000000
0.000000
-0.000000
0.000000
-0.000000
0.000000
0.000000
0.000000
0.000000
0.000000
0.000000
0.000000
0.000000
0.000000
0.000000
0.000000
0.000000
-0.000000
-0.000000
-0.000000
-0.000000
0.000000
0.000000
0.000000
0.000000
0.000000
0.000000
0.000000
0.000000
0.000000
0.000000
0.000000
0.000000
-0.000000
-0.000000
-0.000000
-0.000000
-0.000000
0.000000
-0.000000
0.000000
0.000000
0.000000
0.000000
-0.000000
-0.000000
0.000000
-0.000000
0.000000
0.000000
0.000000
0.000000
0.000000
0.000000
-0.000000
0.000000
-0.000000
-0.000000
0.000000
-0.000000
0.000000
0.000000
0.000000
0.000000
0.000000
0.000000
-0.000000
0.000000
-0.000000
-0.000000
0.000000
-0.000000
-0.000000
-0.000000
0.000000
-0.000000
0.000000
0.000000
0.000000
0.000000
0.000000
0.000000
-0.000000
0.000000
-0.000000
-0.000000
0.000000
-0.000000
0.000000
0.000000
0.000000
0.000000
0.000000
-0.000000
0.000000
-0.000000
0.000000
0.000000
0.000000
0.000000
0.000000
0.000000
-0.000000
0.000000
-0.000000
-0.000000
-0.000000
-0.000000
-0.000000
0.000000
0.000000
0.000000
0.000000
0.000000
0.000000
0.000000
0.000000
-0.000000
0.000000
-0.000000
-0.000000
0.000000
0.000000
0.000000
0.000000
0.000000
0.000000
0.000000
0.000000
0.000000
-0.000000
0.000000
-0.000000
-0.000000
-0.000000
-0.000000
-0.000000
0.000000
0.000000
0.000000
0.000000
0.000000
0.000000
0.000000
0.000000
0.000000
0.000000
0.000000
0.000000
-0.000000
-0.000000
-0.000000
-0.000000
-0.000000
0.000000
-0.000000
0.000000
0.000000
0.000000
-0.000000
0.000000
-0.000000
0.000000
-0.000000
0.000000
0.000000
0.000000
0.000000
0.000000
0.000000
0.000000
0.000000
0.000000
-0.000000
-0.000000
-0.000000
-0.000000
-0.000000
0.000000
-0.000000
0.000000
0.000000
-0.000000
0.000000
-0.000000
-0.000000
0.000000
-0.000000
0.000000
0.000000
0.000000
0.000000
-0.000000
0.000000
0.000000
0.000000
0.000000
-0.000000
-0.000000
-0.000000
-0.000000
0.000000
0.000000
0.000000
0.000000
-0.000000
0.000000
0.000000
0.000000
-0.000000
-0.000000
-0.000000
0.000000
0.000000
0.000000
0.000000
0.000000
-0.000000
-0.000000
-0.000000
0.000000
0.000000
0.000000
0.000000
0.000000
0.000000
-0.000000
0.000000
-0.000000
-0.000000
-0.000000
-0.000000
0.000000
0.000000
0.000000
0.000000
0.000000
0.000000
0.000000
0.000000
0.000000
-0.000000
-0.000000
-0.000000
-0.000000
0.000000
-0.000000
-0.000000
-0.000000
0.000000
0.000000
0.000000
0.000000

SCALARS sigma_yz FLOAT 1
LOOKUP_TABLE default
0.000000
0.000000
0.000000
0.000000
0.000000
0.000000
0.000000
0.000000
0.000000
0.000000
0.000000
0.000000
0.000000
0.000000
0.000000
0.000000
0.000000
0.000000
0.000000
0.000000
0.000000
0.000000
0.000000
0.000000
0.000000
0.000000
0.000000
0.000000
0.000000
0.000000
0.000000
0.000000
0.000000
0.000000
0.000000
0.000000
0.000000
0.000000
0.000000
0.000000
0.000000
0.000000
0.000000
0.000000
0.000000
0.000000
0.000000
0.000000
0.000000
0.000000
0.000000
0.000000
0.000000
0.000000
0.000000
0.000000
0.000000
0.000000
0.000000
0.000000
0.000000
0.000000
0.000000
0.000000
0.000000
0.000000
0.000000
0.000000
0.000000
0.000000
0.000000
0.000000
0.000000
0.000000
0.000000
0.000000
0.000000
0.000000
0.000000
0.000000
0.000000
0.000000
0.000000
0.000000
0.000000
0.000000
0.000000
0.000000
0.000000
0.000000
0.000000
0.000000
0.000000
0.000000
0.000000
0.000000
0.000000
0.000000
0.000000
0.000000
0.000000
0.000000
0.000000
0.000000
0.000000
0.000000
0.000000
0.000000
0.000000
0.000000
0.000000
0.000000
0.000000
0.000000
0.000000
0.000000
0.000000
0.000000
0.000000
0.000000
0.000000
0.000000
0.000000
0.000000
0.000000
0.000000
0.000000
0.000000
0.000000
0.000000
0.000000
0.000000
0.000000
0.000000
0.000000
0.000000
0.000000
0.000000
0.000000
0.000000
0.000000
0.000000
0.000000
0.000000
0.000000
0.000000
0.000000
0.000000
0.000000
0.000000
0.000000
0.000000
0.000000
0.000000
0.000000
0.000000
0.000000
0.000000
0.000000
0.000000
0.000000
0.000000
0.000000
0.000000
0.000000
0.000000
0.000000
0.000000
0.000000
0.000000
0.000000
0.000000
0.000000
0.000000
0.000000
0.000000
0.000000
0.000000
0.000000
0.000000
0.000000
0.000000
0.000000
0.000000
0.000000
0.000000
0.000000
0.000000
0.000000
0.000000
0.000000
0.000000
0.000000
0.000000
0.000000
0.000000
0.000000
0.000000
0.000000
0.000000
0.000000
0.000000
0.000000
0.000000
0.000000
0.000000
0.000000
0.000000
0.000000
0.000000
0.000000
0.000000
0.000000
0.000000
0.000000
0.000000
0.000000
0.000000
0.000000
0.000000
0.000000
0.000000
0.000000
0.000000
0.000000
0.000000
0.000000
0.000000
0.000000
0.000000
0.000000
0.000000
0.000000
0.000000
0.000000
0.000000
0.000000
0.000000
0.000000
0.000000
0.000000
0.000000
0.000000
0.000000
0.000000
0.000000
0.000000
0.000000
0.000000
0.000000
0.000000
0.000000
0.000000
0.000000
0.000000
0.000000

SCALARS sigma_zx FLOAT 1
LOOKUP_TABLE default
0.000000
0.000000
0.000000
0.000000
0.000000
0.000000
0.000000
0.000000
0.000000
0.000000
0.000000
0.000000
0.000000
0.000000
0.000000
0.000000
0.000000
0.000000
0.000000
0.000000
0.000000
0.000000
0.000000
0.000000
0.000000
0.000000
0.000000
0.000000
0.000000
0.000000
0.000000
0.000000
0.000000
0.000000
0.000000
0.000000
0.000000
0.000000
0.000000
0.000000
0.000000
0.000000
0.000000
0.000000
0.000000
0.000000
0.000000
0.000000
0.000000
0.000000
0.000000
0.000000
0.000000
0.000000
0.000000
0.000000
0.000000
0.000000
0.000000
0.000000
0.000000
0.000000
0.000000
0.000000
0.000000
0.000000
0.000000
0.000000
0.000000
0.000000
0.000000
0.000000
0.000000
0.000000
0.000000
0.000000
0.000000
0.000000
0.000000
0.000000
0.000000
0.000000
0.000000
0.000000
0.000000
0.000000
0.000000
0.000000
0.000000
0.000000
0.000000
0.000000
0.000000
0.000000
0.000000
0.000000
0.000000
0.000000
0.000000
0.000000
0.000000
0.000000
0.000000
0.000000
0.000000
0.000000
0.000000
0.000000
0.000000
0.000000
0.000000
0.000000
0.000000
0.000000
0.000000
0.000000
0.000000
0.000000
0.000000
0.000000
0.000000
0.000000
0.000000
0.000000
0.000000
0.000000
0.000000
0.000000
0.000000
0.000000
0.000000
0.000000
0.000000
0.000000
0.000000
0.000000
0.000000
0.000000
0.000000
0.000000
0.000000
0.000000
0.000000
0.000000
0.000000
0.000000
0.000000
0.000000
0.000000
0.000000
0.000000
0.000000
0.000000
0.000000
0.000000
0.000000
0.000000
0.000000
0.000000
0.000000
0.000000
0.000000
0.000000
0.000000
0.000000
0.000000
0.000000
0.000000
0.000000
0.000000
0.000000
0.000000
0.000000
0.000000
0.000000
0.000000
0.000000
0.000000
0.000000
0.000000
0.000000
0.000000
0.000000
0.000000
0.000000
0.000000
0.000000
0.000000
0.000000
0.000000
0.000000
0.000000
0.000000
0.000000
0.000000
0.000000
0.000000
0.000000
0.000000
0.000000
0.000000
0.000000
0.000000
0.000000
0.000000
0.000000
0.000000
0.000000
0.000000
0.000000
0.000000
0.000000
0.000000
0.000000
0.000000
0.000000
0.000000
0.000000
0.000000
0.000000
0.000000
0.000000
0.000000
0.000000
0.000000
0.000000
0.000000
0.000000
0.000000
0.000000
0.000000
0.000000
0.000000
0.000000
0.000000
0.000000
0.000000
0.000000
0.000000
0.000000
0.000000
0.000000
0.000000
0.000000
0.000000
0.000000
0.000000
0.000000
0.000000
0.000000
0.000000
0.000000
0.000000
0.000000
0.000000
0.000000

SCALARS u_x FLOAT 1
LOOKUP_TABLE default
0.000000
0.000000
0.000000
0.000000
0.000000
0.000000
0.000000
0.000000
0.000000
0.000000
0.000000
0.000000
0.000000
0.000000
0.000000
0.000000
0.000000
0.000000
0.000000
0.000000
0.000000
0.000000
0.000000
0.000000
0.000000
0.000000
0.000000
0.000000
0.000000
0.000000
0.000000
0.000000
0.000000
0.000000
0.000000
0.000000
0.000000
0.000000
0.000000
0.000000
0.000000
0.000000
0.000000
0.000000
0.000000
0.000000
0.000000
0.000000
0.000000
0.000000
0.000000
0.000000
0.000000
0.000000
0.000000
0.000000
0.000000
0.000000
0.000000
0.000000
0.000000
0.000000
0.000000
0.000000
0.000000
0.000000
0.000000
0.000000
0.000000
0.000000
0.000000
0.000000
0.000000
0.000000
0.000000
0.000000
0.000000
0.000000
0.000000
0.000000
0.000000
0.000000
0.000000
0.000000
0.000000
0.000000
0.000000
0.000000
0.000000
0.000000
0.000000
0.000000
0.000000
0.000000
0.000000
0.000000
0.000000
0.000000
0.000000
0.000000
0.000000
0.000000
0.000000
0.000000
0.000000
0.000000
0.000000
0.000000
0.000000
0.000000
0.000000
0.000000
0.000000
0.000000
0.000000
0.000000
0.000000
0.000000
0.000000
0.000000
0.000000
0.000000
0.000000
0.000000
0.000000
0.000000
0.000000
0.000000
0.000000
0.000000
0.000000
0.000000
0.000000
0.000000
0.000000
0.000000
0.000000
0.000000
0.000000
0.000000
0.000000
0.000000
0.000000
0.000000
0.000000
0.000000
0.000000
0.000000
0.000000
0.000000
0.000000
0.000000
0.000000
0.000000
0.000000
0.000000
0.000000
0.000000
0.000000
0.000000
0.000000
0.000000
0.000000
0.000000
0.000000
0.000000
0.000000
0.000000
0.000000
0.000000
0.000000
0.000000
0.000000
0.000000
0.000000
0.000000
0.000000
0.000000
0.000000
0.000000
0.000000
0.000000
0.000000
0.000000
0.000000
0.000000
0.000000
0.000000
0.000000
0.000000
0.000000
0.000000
0.000000
0.000000
0.000000
0.000000
0.000000
0.000000
0.000000
0.000000
0.000000
0.000000
0.000000
0.000000
0.000000
0.000000
0.000000
0.000000
0.000000
0.000000
0.000000
0.000000
0.000000
0.000000
0.000000
0.000000
0.000000
0.000000
0.000000
0.000000
0.000000
0.000000
0.000000
0.000000
0.000000
0.000000
0.000000
0.000000
0.000000
0.000000
0.000000
0.000000
0.000000
0.000000
0.000000
0.000000
0.000000
0.000000
0.000000
0.000000
0.000000
0.000000
0.000000
0.000000
0.000000
0.000000
0.000000
0.000000
0.000000
0.000000
0.000000
0.000000
0.000000
0.000000
0.000000
0.000000

SCALARS u_y FLOAT 1
LOOKUP_TABLE default
-0.107628
-0.322883
-0.107628
-0.322883
-0.537896
-0.752113
-0.537896
-0.752113
-0.965570
-1.178349
-0.965570
-1.178349
-1.390600
-1.602207
-1.390600
-1.602207
-1.813132
-2.023328
-1.813132
-2.023328
-2.232922
-2.441852
-2.232922
-2.441852
-2.650106
-2.857617
-2.650106
-2.857617
-3.064496
-3.270685
-3.064496
-3.270685
-3.476153
-3.680878
-3.476153
-3.680878
-3.884914
-4.088254
-3.884914
-4.088254
-4.290820
-4.492636
-4.290820
-4.492636
-4.693710
-4.894100
-4.693710
-4.894100
-5.093689
-5.292481
-5.093689
-5.292481
-5.490474
-5.687785
-5.490474
-5.687785
-5.884244
-6.079908
-5.884244
-6.079908
-6.274785
-6.468826
-6.274785
-6.468826
-6.662004
-6.854248
-6.662004
-6.854248
-7.045801
-7.236445
-7.045801
-7.236445
-7.426280
-7.615186
-7.426280
-7.615186
-7.803253
-7.990399
-7.803253
-7.990399
-8.176510
-8.361814
-8.176510
-8.361814
-8.546060
-8.729545
-8.546060
-8.729545
-8.911958
-9.093520
-8.911958
-9.093520
-9.274099
-9.453631
-9.274099
-9.453631
-9.632189
-9.809639
-9.632189
-9.809639
-9.986221
-10.161729
-9.986221
-10.161729
-10.336086
-10.509522
-10.336086
-10.509522
-10.681689
-10.852921
-10.681689
-10.852921
-11.022944
-11.191925
-11.022944
-11.191925
-11.359810
-11.526436
-11.359810
-11.526436
-11.691995
-11.856272
-11.691995
-11.856272
-12.019430
-12.181332
-12.019430
-12.181332
-12.341888
-12.501370
-12.341888
-12.501370
-12.659438
-12.816333
-12.659438
-12.816333
-12.971961
-13.126012
-12.971961
-13.126012
-13.279044
-13.430470
-13.279044
-13.430470
-13.580617
-13.729271
-13.580617
-13.729271
-13.876457
-14.022272
-13.876457
-14.022272
-14.166489
-14.309251
-14.166489
-14.309251
-14.450603
-14.590145
-14.450603
-14.590145
-14.728332
-14.864732
-14.728332
-14.864732
-14.999691
-15.133003
-14.999691
-15.133003
-15.264334
-15.394345
-15.264334
-15.394345
-15.522236
-15.648611
-15.522236
-15.648611
-15.772934
-15.895515
-15.772934
-15.895515
-16.016093
-16.134763
-16.016093
-16.134763
-16.251550
-16.366322
-16.251550
-16.366322
-16.478823
-16.589535
-16.478823
-16.589535
-16.697536
-16.803886
-16.697536
-16.803886
-16.907710
-17.009690
-16.907710
-17.009690
-17.109281
-17.206258
-17.109281
-17.206258
-17.300917
-17.392708
-17.300917
-17.392708
-17.482254
-17.568907
-17.482254
-17.568907
-17.653247
-17.734798
-17.653247
-17.734798
-17.813319
-17.889017
-17.813319
-17.889017
-17.961639
-18.031593
-17.961639
-18.031593
-18.097996
-18.161156
-18.097996
-18.161156
-18.221063
-18.277747
-18.221063
-18.277747
-18.330743
-18.379783
-18.330743
-18.379783
-18.425558
-18.466883
-18.425558
-18.466883
-18.504896
-18.538356
-18.504896
-18.538356
-18.568166
-18.592731
-18.568166
-18.592731
-18.613520
-18.628554
-18.613520
-18.628554
-18.639658
-18.645597
-18.639658
-18.645597

