# vtk DataFile Version 2.0
MATLAB generated vtk file, WMC
ASCII
DATASET UNSTRUCTURED_GRID
POINTS 256 double
0.195312 0.064398 0.000000 
0.195312 0.193193 0.000000 
0.585938 0.064398 0.000000 
0.585938 0.193193 0.000000 
0.195312 0.322166 0.000000 
0.195312 0.451724 0.000000 
0.585938 0.322166 0.000000 
0.585938 0.451724 0.000000 
0.195312 0.581855 0.000000 
0.195312 0.712673 0.000000 
0.585938 0.581855 0.000000 
0.585938 0.712673 0.000000 
0.195312 0.844106 0.000000 
0.195312 0.976047 0.000000 
0.585938 0.844106 0.000000 
0.585938 0.976047 0.000000 
0.195312 1.108491 0.000000 
0.195312 1.241523 0.000000 
0.585938 1.108491 0.000000 
0.585938 1.241523 0.000000 
0.195312 1.375151 0.000000 
0.195312 1.509417 0.000000 
0.585938 1.375151 0.000000 
0.585938 1.509417 0.000000 
0.195312 1.644293 0.000000 
0.195312 1.779753 0.000000 
0.585938 1.644293 0.000000 
0.585938 1.779753 0.000000 
0.195312 1.915775 0.000000 
0.195312 2.052424 0.000000 
0.585938 1.915775 0.000000 
0.585938 2.052424 0.000000 
0.195312 2.189701 0.000000 
0.195312 2.327635 0.000000 
0.585938 2.189701 0.000000 
0.585938 2.327635 0.000000 
0.195312 2.466204 0.000000 
0.195312 2.605389 0.000000 
0.585938 2.466204 0.000000 
0.585938 2.605389 0.000000 
0.195312 2.745240 0.000000 
0.195312 2.885761 0.000000 
0.585938 2.745240 0.000000 
0.585938 2.885761 0.000000 
0.195312 3.026979 0.000000 
0.195312 3.168870 0.000000 
0.585938 3.026979 0.000000 
0.585938 3.168870 0.000000 
0.195312 3.311430 0.000000 
0.195312 3.454657 0.000000 
0.585938 3.311430 0.000000 
0.585938 3.454657 0.000000 
0.195312 3.598600 0.000000 
0.195312 3.743218 0.000000 
0.585938 3.598600 0.000000 
0.585938 3.743218 0.000000 
0.195312 3.888614 0.000000 
0.195312 4.034724 0.000000 
0.585938 3.888614 0.000000 
0.585938 4.034724 0.000000 
0.195312 4.181522 0.000000 
0.195312 4.329068 0.000000 
0.585938 4.181522 0.000000 
0.585938 4.329068 0.000000 
0.195312 4.477373 0.000000 
0.195312 4.626502 0.000000 
0.585938 4.477373 0.000000 
0.585938 4.626502 0.000000 
0.195312 4.776333 0.000000 
0.195312 4.927011 0.000000 
0.585938 4.776333 0.000000 
0.585938 4.927011 0.000000 
0.195312 5.078441 0.000000 
0.195312 5.230724 0.000000 
0.585938 5.078441 0.000000 
0.585938 5.230724 0.000000 
0.195312 5.383802 0.000000 
0.195312 5.537729 0.000000 
0.585938 5.383802 0.000000 
0.585938 5.537729 0.000000 
0.195312 5.692521 0.000000 
0.195312 5.848047 0.000000 
0.585938 5.692521 0.000000 
0.585938 5.848047 0.000000 
0.195312 6.004543 0.000000 
0.195312 6.161832 0.000000 
0.585938 6.004543 0.000000 
0.585938 6.161832 0.000000 
0.195312 6.320130 0.000000 
0.195312 6.479238 0.000000 
0.585938 6.320130 0.000000 
0.585938 6.479238 0.000000 
0.195312 6.639276 0.000000 
0.195312 6.800224 0.000000 
0.585938 6.639276 0.000000 
0.585938 6.800224 0.000000 
0.195312 6.962095 0.000000 
0.195312 7.125004 0.000000 
0.585938 6.962095 0.000000 
0.585938 7.125004 0.000000 
0.195312 7.288805 0.000000 
0.195312 7.453595 0.000000 
0.585938 7.288805 0.000000 
0.585938 7.453595 0.000000 
0.195312 7.619481 0.000000 
0.195312 7.786272 0.000000 
0.585938 7.619481 0.000000 
0.585938 7.786272 0.000000 
0.195312 7.954178 0.000000 
0.195312 8.123042 0.000000 
0.585938 7.954178 0.000000 
0.585938 8.123042 0.000000 
0.195312 8.292979 0.000000 
0.195312 8.463985 0.000000 
0.585938 8.292979 0.000000 
0.585938 8.463985 0.000000 
0.195312 8.636134 0.000000 
0.195312 8.809421 0.000000 
0.585938 8.636134 0.000000 
0.585938 8.809421 0.000000 
0.195312 8.983858 0.000000 
0.195312 9.159481 0.000000 
0.585938 8.983858 0.000000 
0.585938 9.159481 0.000000 
0.195312 9.336179 0.000000 
0.195312 9.514064 0.000000 
0.585938 9.336179 0.000000 
0.585938 9.514064 0.000000 
0.195312 9.693214 0.000000 
0.195312 9.873517 0.000000 
0.585938 9.693214 0.000000 
0.585938 9.873517 0.000000 
0.195312 10.055209 0.000000 
0.195312 10.238127 0.000000 
0.585938 10.055209 0.000000 
0.585938 10.238127 0.000000 
0.195312 10.422292 0.000000 
0.195312 10.607899 0.000000 
0.585938 10.422292 0.000000 
0.585938 10.607899 0.000000 
0.195312 10.794702 0.000000 
0.195312 10.983015 0.000000 
0.585938 10.794702 0.000000 
0.585938 10.983015 0.000000 
0.195312 11.172662 0.000000 
0.195312 11.363792 0.000000 
0.585938 11.172662 0.000000 
0.585938 11.363792 0.000000 
0.195312 11.556395 0.000000 
0.195312 11.750540 0.000000 
0.585938 11.556395 0.000000 
0.585938 11.750540 0.000000 
0.195312 11.946185 0.000000 
0.195312 12.143360 0.000000 
0.585938 11.946185 0.000000 
0.585938 12.143360 0.000000 
0.195312 12.341990 0.000000 
0.195312 12.542338 0.000000 
0.585938 12.341990 0.000000 
0.585938 12.542338 0.000000 
0.195312 12.744299 0.000000 
0.195312 12.948108 0.000000 
0.585938 12.744299 0.000000 
0.585938 12.948108 0.000000 
0.195312 13.153627 0.000000 
0.195312 13.360967 0.000000 
0.585938 13.153627 0.000000 
0.585938 13.360967 0.000000 
0.195312 13.570131 0.000000 
0.195312 13.780797 0.000000 
0.585938 13.570131 0.000000 
0.585938 13.780797 0.000000 
0.195312 13.993503 0.000000 
0.195312 14.208009 0.000000 
0.585938 13.993503 0.000000 
0.585938 14.208009 0.000000 
0.195312 14.424641 0.000000 
0.195312 14.643363 0.000000 
0.585938 14.424641 0.000000 
0.585938 14.643363 0.000000 
0.195312 14.864414 0.000000 
0.195312 15.087442 0.000000 
0.585938 14.864414 0.000000 
0.585938 15.087442 0.000000 
0.195312 15.312548 0.000000 
0.195312 15.539886 0.000000 
0.585938 15.312548 0.000000 
0.585938 15.539886 0.000000 
0.195312 15.769605 0.000000 
0.195312 16.001431 0.000000 
0.585938 15.769605 0.000000 
0.585938 16.001431 0.000000 
0.195312 16.235959 0.000000 
0.195312 16.472920 0.000000 
0.585938 16.235959 0.000000 
0.585938 16.472920 0.000000 
0.195312 16.712601 0.000000 
0.195312 16.954737 0.000000 
0.585938 16.712601 0.000000 
0.585938 16.954737 0.000000 
0.195312 17.199708 0.000000 
0.195312 17.447659 0.000000 
0.585938 17.199708 0.000000 
0.585938 17.447659 0.000000 
0.195312 17.698313 0.000000 
0.195312 17.952215 0.000000 
0.585938 17.698313 0.000000 
0.585938 17.952215 0.000000 
0.195312 18.208987 0.000000 
0.195312 18.469142 0.000000 
0.585938 18.208987 0.000000 
0.585938 18.469142 0.000000 
0.195312 18.732377 0.000000 
0.195312 18.999192 0.000000 
0.585938 18.732377 0.000000 
0.585938 18.999192 0.000000 
0.195312 19.269742 0.000000 
0.195312 19.543812 0.000000 
0.585938 19.269742 0.000000 
0.585938 19.543812 0.000000 
0.195312 19.821867 0.000000 
0.195312 20.103731 0.000000 
0.585938 19.821867 0.000000 
0.585938 20.103731 0.000000 
0.195312 20.390159 0.000000 
0.195312 20.680819 0.000000 
0.585938 20.390159 0.000000 
0.585938 20.680819 0.000000 
0.195312 20.975840 0.000000 
0.195312 21.275247 0.000000 
0.585938 20.975840 0.000000 
0.585938 21.275247 0.000000 
0.195312 21.579554 0.000000 
0.195312 21.889804 0.000000 
0.585938 21.579554 0.000000 
0.585938 21.889804 0.000000 
0.195312 22.205101 0.000000 
0.195312 22.526161 0.000000 
0.585938 22.205101 0.000000 
0.585938 22.526161 0.000000 
0.195312 22.852455 0.000000 
0.195312 23.186219 0.000000 
0.585938 22.852455 0.000000 
0.585938 23.186219 0.000000 
0.195312 23.526346 0.000000 
0.195312 23.873625 0.000000 
0.585938 23.526346 0.000000 
0.585938 23.873625 0.000000 
0.195312 24.227733 0.000000 
0.195312 24.591784 0.000000 
0.585938 24.227733 0.000000 
0.585938 24.591784 0.000000 
0.195312 24.960835 0.000000 
0.195312 25.335600 0.000000 
0.585938 24.960835 0.000000 
0.585938 25.335600 0.000000 

POINT_DATA 256
SCALARS sigma_xx FLOAT 1
LOOKUP_TABLE default
0.000000
0.000000
0.000000
0.000000
-0.000000
-0.000000
-0.000000
-0.000000
-0.000000
-0.000000
-0.000000
-0.000000
-0.000000
-0.000000
-0.000000
0.000000
-0.000000
-0.000000
-0.000000
-0.000000
-0.000000
-0.000000
-0.000000
-0.000000
-0.000000
-0.000000
-0.000000
-0.000000
-0.000000
0.000000
-0.000000
0.000000
-0.000000
-0.000000
-0.000000
-0.000000
-0.000000
-0.000000
-0.000000
-0.000000
-0.000000
-0.000000
-0.000000
-0.000000
-0.000000
-0.000000
-0.000000
-0.000000
-0.000000
-0.000000
-0.000000
-0.000000
-0.000000
-0.000000
-0.000000
-0.000000
0.000000
0.000000
0.000000
0.000000
-0.000000
-0.000000
-0.000000
-0.000000
-0.000000
-0.000000
-0.000000
-0.000000
-0.000000
-0.000000
-0.000000
-0.000000
-0.000000
-0.000000
-0.000000
-0.000000
-0.000000
-0.000000
-0.000000
-0.000000
-0.000000
-0.000000
-0.000000
-0.000000
-0.000000
-0.000000
-0.000000
-0.000000
-0.000000
-0.000000
-0.000000
-0.000000
-0.000000
0.000000
-0.000000
0.000000
-0.000000
-0.000000
-0.000000
-0.000000
-0.000000
-0.000000
-0.000000
-0.000000
-0.000000
-0.000000
-0.000000
-0.000000
-0.000000
-0.000000
-0.000000
-0.000000
-0.000000
0.000000
-0.000000
-0.000000
-0.000000
-0.000000
-0.000000
-0.000000
-0.000000
-0.000000
-0.000000
-0.000000
-0.000000
-0.000000
-0.000000
-0.000000
0.000000
-0.000000
-0.000000
-0.000000
-0.000000
-0.000000
-0.000000
-0.000000
-0.000000
-0.000000
-0.000000
-0.000000
-0.000000
-0.000000
-0.000000
-0.000000
-0.000000
-0.000000
-0.000000
-0.000000
-0.000000
-0.000000
-0.000000
-0.000000
-0.000000
-0.000000
-0.000000
-0.000000
-0.000000
-0.000000
-0.000000
-0.000000
0.000000
-0.000000
-0.000000
-0.000000
-0.000000
-0.000000
-0.000000
0.000000
0.000000
-0.000000
0.000000
-0.000000
0.000000
-0.000000
-0.000000
-0.000000
-0.000000
-0.000000
-0.000000
-0.000000
-0.000000
-0.000000
-0.000000
-0.000000
-0.000000
-0.000000
-0.000000
-0.000000
-0.000000
-0.000000
-0.000000
-0.000000
-0.000000
-0.000000
-0.000000
-0.000000
0.000000
-0.000000
0.000000
-0.000000
-0.000000
-0.000000
-0.000000
-0.000000
-0.000000
-0.000000
-0.000000
-0.000000
-0.000000
-0.000000
-0.000000
-0.000000
-0.000000
-0.000000
-0.000000
0.000000
-0.000000
-0.000000
-0.000000
-0.000000
-0.000000
0.000000
-0.000000
-0.000000
0.000000
-0.000000
0.000000
-0.000000
-0.000000
-0.000000
-0.000000
-0.000000
0.000000
-0.000000
0.000000
-0.000000
-0.000000
-0.000000
-0.000000
-0.000000
-0.000000
-0.000000
-0.000000
-0.000000
-0.000000
-0.000000
-0.000000
-0.000000
-0.000000
0.000000
-0.000000
0.000000
-0.000000
0.000000
-0.000000
0.000000

SCALARS sigma_yy FLOAT 1
LOOKUP_TABLE default
-33650.838082
-33650.838082
-33650.838082
-33650.838082
-33418.908284
-33150.971472
-33418.908284
-33150.971472
-32820.566226
-32520.897341
-32820.566226
-32520.897341
-32235.645994
-32031.728832
-32235.645994
-32031.728832
-31759.424409
-31502.327006
-31759.424409
-31502.327006
-31206.833123
-30939.368840
-31206.833123
-30939.368840
-30660.666897
-30426.770490
-30660.666897
-30426.770490
-30154.381024
-29898.271965
-30154.381024
-29898.271965
-29604.453479
-29355.881565
-29604.453479
-29355.881565
-29078.377433
-28843.502421
-29078.377433
-28843.502421
-28548.105465
-28291.341142
-28548.105465
-28291.341142
-27990.640827
-27767.329694
-27990.640827
-27767.329694
-27483.787790
-27242.651025
-27483.787790
-27242.651025
-26951.419402
-26704.636079
-26951.419402
-26704.636079
-26408.309609
-26180.660404
-26408.309609
-26180.660404
-25891.170276
-25654.646505
-25891.170276
-25654.646505
-25369.431683
-25093.029692
-25369.431683
-25093.029692
-24838.036341
-24581.545364
-24838.036341
-24581.545364
-24303.564440
-24033.960287
-24303.564440
-24033.960287
-23764.171968
-23508.545726
-23764.171968
-23508.545726
-23227.172036
-22996.176048
-23227.172036
-22996.176048
-22706.755529
-22449.829042
-22706.755529
-22449.829042
-22150.303237
-21931.044165
-22150.303237
-21931.044165
-21638.893346
-21395.997014
-21638.893346
-21395.997014
-21114.775923
-20847.552362
-21114.775923
-20847.552362
-20590.784836
-20318.954238
-20590.784836
-20318.954238
-20037.200800
-19796.073751
-20037.200800
-19796.073751
-19523.245387
-19272.934908
-19523.245387
-19272.934908
-18994.001392
-18738.351199
-18994.001392
-18738.351199
-18445.424250
-18193.455276
-18445.424250
-18193.455276
-17912.248513
-17666.231678
-17912.248513
-17666.231678
-17390.758117
-17157.424230
-17390.758117
-17157.424230
-16855.410259
-16623.122196
-16855.410259
-16623.122196
-16313.051533
-16078.200274
-16313.051533
-16078.200274
-15796.703253
-15556.279772
-15796.703253
-15556.279772
-15275.931953
-15015.832183
-15275.931953
-15015.832183
-14739.525522
-14477.136047
-14739.525522
-14477.136047
-14201.814703
-13945.105749
-14201.814703
-13945.105749
-13664.529024
-13424.098968
-13664.529024
-13424.098968
-13166.914607
-12878.888896
-13166.914607
-12878.888896
-12629.060166
-12331.705608
-12629.060166
-12331.705608
-12066.248757
-11796.495722
-12066.248757
-11796.495722
-11559.446840
-11306.432090
-11559.446840
-11306.432090
-11041.034007
-10774.748940
-11041.034007
-10774.748940
-10490.102509
-10206.315989
-10490.102509
-10206.315989
-9943.810270
-9685.904323
-9943.810270
-9685.904323
-9441.313861
-9162.154506
-9441.313861
-9162.154506
-8905.971691
-8653.116721
-8905.971691
-8653.116721
-8357.571748
-8114.007401
-8357.571748
-8114.007401
-7822.829749
-7589.846769
-7822.829749
-7589.846769
-7290.377382
-7044.071178
-7290.377382
-7044.071178
-6769.559989
-6506.091108
-6769.559989
-6506.091108
-6248.395371
-5977.338556
-6248.395371
-5977.338556
-5714.280711
-5446.208019
-5714.280711
-5446.208019
-5176.068537
-4916.450383
-5176.068537
-4916.450383
-4642.181385
-4385.130139
-4642.181385
-4385.130139
-4094.107420
-3849.161123
-4094.107420
-3849.161123
-3590.678630
-3349.734053
-3590.678630
-3349.734053
-3041.930673
-2783.470679
-3041.930673
-2783.470679
-2512.987699
-2284.205979
-2512.987699
-2284.205979
-1998.932323
-1711.678492
-1998.932323
-1711.678492
-1456.471189
-1205.480054
-1456.471189
-1205.480054
-932.474103
-645.970571
-932.474103
-645.970571
-510.426988
-8.632155
-510.426988
-8.632155

SCALARS sigma_zz FLOAT 1
LOOKUP_TABLE default
0.000000
0.000000
0.000000
0.000000
0.000000
0.000000
0.000000
0.000000
0.000000
0.000000
0.000000
0.000000
0.000000
0.000000
0.000000
0.000000
0.000000
0.000000
0.000000
0.000000
0.000000
0.000000
0.000000
0.000000
0.000000
0.000000
0.000000
0.000000
0.000000
0.000000
0.000000
0.000000
0.000000
0.000000
0.000000
0.000000
0.000000
0.000000
0.000000
0.000000
0.000000
0.000000
0.000000
0.000000
0.000000
0.000000
0.000000
0.000000
0.000000
0.000000
0.000000
0.000000
0.000000
0.000000
0.000000
0.000000
0.000000
0.000000
0.000000
0.000000
0.000000
0.000000
0.000000
0.000000
0.000000
0.000000
0.000000
0.000000
0.000000
0.000000
0.000000
0.000000
0.000000
0.000000
0.000000
0.000000
0.000000
0.000000
0.000000
0.000000
0.000000
0.000000
0.000000
0.000000
0.000000
0.000000
0.000000
0.000000
0.000000
0.000000
0.000000
0.000000
0.000000
0.000000
0.000000
0.000000
0.000000
0.000000
0.000000
0.000000
0.000000
0.000000
0.000000
0.000000
0.000000
0.000000
0.000000
0.000000
0.000000
0.000000
0.000000
0.000000
0.000000
0.000000
0.000000
0.000000
0.000000
0.000000
0.000000
0.000000
0.000000
0.000000
0.000000
0.000000
0.000000
0.000000
0.000000
0.000000
0.000000
0.000000
0.000000
0.000000
0.000000
0.000000
0.000000
0.000000
0.000000
0.000000
0.000000
0.000000
0.000000
0.000000
0.000000
0.000000
0.000000
0.000000
0.000000
0.000000
0.000000
0.000000
0.000000
0.000000
0.000000
0.000000
0.000000
0.000000
0.000000
0.000000
0.000000
0.000000
0.000000
0.000000
0.000000
0.000000
0.000000
0.000000
0.000000
0.000000
0.000000
0.000000
0.000000
0.000000
0.000000
0.000000
0.000000
0.000000
0.000000
0.000000
0.000000
0.000000
0.000000
0.000000
0.000000
0.000000
0.000000
0.000000
0.000000
0.000000
0.000000
0.000000
0.000000
0.000000
0.000000
0.000000
0.000000
0.000000
0.000000
0.000000
0.000000
0.000000
0.000000
0.000000
0.000000
0.000000
0.000000
0.000000
0.000000
0.000000
0.000000
0.000000
0.000000
0.000000
0.000000
0.000000
0.000000
0.000000
0.000000
0.000000
0.000000
0.000000
0.000000
0.000000
0.000000
0.000000
0.000000
0.000000
0.000000
0.000000
0.000000
0.000000
0.000000
0.000000
0.000000
0.000000
0.000000
0.000000
0.000000
0.000000
0.000000
0.000000
0.000000
0.000000
0.000000
0.000000
0.000000
0.000000
0.000000
0.000000
0.000000
0.000000
0.000000
0.000000
0.000000
0.000000
0.000000
0.000000

SCALARS sigma_xy FLOAT 1
LOOKUP_TABLE default
0.000000
0.000000
0.000000
0.000000
-0.000000
-0.000000
-0.000000
-0.000000
-0.000000
-0.000000
-0.000000
-0.000000
-0.000000
0.000000
-0.000000
0.000000
0.000000
0.000000
0.000000
0.000000
0.000000
0.000000
0.000000
0.000000
0.000000
-0.000000
0.000000
-0.000000
-0.000000
0.000000
-0.000000
0.000000
-0.000000
-0.000000
-0.000000
-0.000000
-0.000000
-0.000000
-0.000000
-0.000000
0.000000
0.000000
0.000000
0.000000
0.000000
0.000000
0.000000
0.000000
-0.000000
-0.000000
-0.000000
-0.000000
-0.000000
-0.000000
-0.000000
-0.000000
0.000000
0.000000
0.000000
0.000000
0.000000
-0.000000
0.000000
-0.000000
0.000000
-0.000000
0.000000
-0.000000
-0.000000
-0.000000
-0.000000
-0.000000
-0.000000
0.000000
-0.000000
0.000000
0.000000
0.000000
0.000000
0.000000
0.000000
-0.000000
0.000000
-0.000000
-0.000000
-0.000000
-0.000000
-0.000000
-0.000000
-0.000000
-0.000000
-0.000000
-0.000000
0.000000
-0.000000
0.000000
0.000000
0.000000
0.000000
0.000000
0.000000
0.000000
0.000000
0.000000
-0.000000
-0.000000
-0.000000
-0.000000
-0.000000
-0.000000
-0.000000
-0.000000
0.000000
0.000000
0.000000
-0.000000
0.000000
0.000000
0.000000
0.000000
-0.000000
0.000000
-0.000000
0.000000
-0.000000
-0.000000
-0.000000
-0.000000
0.000000
0.000000
-0.000000
0.000000
0.000000
-0.000000
0.000000
-0.000000
-0.000000
-0.000000
-0.000000
-0.000000
-0.000000
0.000000
-0.000000
0.000000
0.000000
0.000000
0.000000
0.000000
0.000000
0.000000
0.000000
0.000000
-0.000000
-0.000000
-0.000000
-0.000000
-0.000000
0.000000
-0.000000
0.000000
0.000000
-0.000000
-0.000000
-0.000000
-0.000000
-0.000000
-0.000000
0.000000
0.000000
0.000000
0.000000
0.000000
0.000000
0.000000
0.000000
0.000000
-0.000000
-0.000000
-0.000000
-0.000000
-0.000000
0.000000
-0.000000
0.000000
0.000000
0.000000
0.000000
0.000000
0.000000
0.000000
0.000000
0.000000
0.000000
-0.000000
0.000000
-0.000000
0.000000
-0.000000
0.000000
-0.000000
0.000000
-0.000000
0.000000
-0.000000
-0.000000
-0.000000
-0.000000
-0.000000
0.000000
0.000000
0.000000
0.000000
0.000000
-0.000000
0.000000
0.000000
-0.000000
-0.000000
-0.000000
-0.000000
-0.000000
0.000000
-0.000000
0.000000
0.000000
-0.000000
0.000000
-0.000000
-0.000000
-0.000000
-0.000000
-0.000000
0.000000
-0.000000
0.000000
-0.000000
0.000000
0.000000
0.000000
0.000000
0.000000
0.000000
0.000000
0.000000
-0.000000
0.000000
-0.000000
0.000000
0.000000
0.000000
0.000000
0.000000
-0.000000
0.000000
-0.000000
0.000000

SCALARS sigma_yz FLOAT 1
LOOKUP_TABLE default
0.000000
0.000000
0.000000
0.000000
0.000000
0.000000
0.000000
0.000000
0.000000
0.000000
0.000000
0.000000
0.000000
0.000000
0.000000
0.000000
0.000000
0.000000
0.000000
0.000000
0.000000
0.000000
0.000000
0.000000
0.000000
0.000000
0.000000
0.000000
0.000000
0.000000
0.000000
0.000000
0.000000
0.000000
0.000000
0.000000
0.000000
0.000000
0.000000
0.000000
0.000000
0.000000
0.000000
0.000000
0.000000
0.000000
0.000000
0.000000
0.000000
0.000000
0.000000
0.000000
0.000000
0.000000
0.000000
0.000000
0.000000
0.000000
0.000000
0.000000
0.000000
0.000000
0.000000
0.000000
0.000000
0.000000
0.000000
0.000000
0.000000
0.000000
0.000000
0.000000
0.000000
0.000000
0.000000
0.000000
0.000000
0.000000
0.000000
0.000000
0.000000
0.000000
0.000000
0.000000
0.000000
0.000000
0.000000
0.000000
0.000000
0.000000
0.000000
0.000000
0.000000
0.000000
0.000000
0.000000
0.000000
0.000000
0.000000
0.000000
0.000000
0.000000
0.000000
0.000000
0.000000
0.000000
0.000000
0.000000
0.000000
0.000000
0.000000
0.000000
0.000000
0.000000
0.000000
0.000000
0.000000
0.000000
0.000000
0.000000
0.000000
0.000000
0.000000
0.000000
0.000000
0.000000
0.000000
0.000000
0.000000
0.000000
0.000000
0.000000
0.000000
0.000000
0.000000
0.000000
0.000000
0.000000
0.000000
0.000000
0.000000
0.000000
0.000000
0.000000
0.000000
0.000000
0.000000
0.000000
0.000000
0.000000
0.000000
0.000000
0.000000
0.000000
0.000000
0.000000
0.000000
0.000000
0.000000
0.000000
0.000000
0.000000
0.000000
0.000000
0.000000
0.000000
0.000000
0.000000
0.000000
0.000000
0.000000
0.000000
0.000000
0.000000
0.000000
0.000000
0.000000
0.000000
0.000000
0.000000
0.000000
0.000000
0.000000
0.000000
0.000000
0.000000
0.000000
0.000000
0.000000
0.000000
0.000000
0.000000
0.000000
0.000000
0.000000
0.000000
0.000000
0.000000
0.000000
0.000000
0.000000
0.000000
0.000000
0.000000
0.000000
0.000000
0.000000
0.000000
0.000000
0.000000
0.000000
0.000000
0.000000
0.000000
0.000000
0.000000
0.000000
0.000000
0.000000
0.000000
0.000000
0.000000
0.000000
0.000000
0.000000
0.000000
0.000000
0.000000
0.000000
0.000000
0.000000
0.000000
0.000000
0.000000
0.000000
0.000000
0.000000
0.000000
0.000000
0.000000
0.000000
0.000000
0.000000
0.000000
0.000000
0.000000
0.000000
0.000000
0.000000
0.000000
0.000000
0.000000
0.000000
0.000000
0.000000
0.000000

SCALARS sigma_zx FLOAT 1
LOOKUP_TABLE default
0.000000
0.000000
0.000000
0.000000
0.000000
0.000000
0.000000
0.000000
0.000000
0.000000
0.000000
0.000000
0.000000
0.000000
0.000000
0.000000
0.000000
0.000000
0.000000
0.000000
0.000000
0.000000
0.000000
0.000000
0.000000
0.000000
0.000000
0.000000
0.000000
0.000000
0.000000
0.000000
0.000000
0.000000
0.000000
0.000000
0.000000
0.000000
0.000000
0.000000
0.000000
0.000000
0.000000
0.000000
0.000000
0.000000
0.000000
0.000000
0.000000
0.000000
0.000000
0.000000
0.000000
0.000000
0.000000
0.000000
0.000000
0.000000
0.000000
0.000000
0.000000
0.000000
0.000000
0.000000
0.000000
0.000000
0.000000
0.000000
0.000000
0.000000
0.000000
0.000000
0.000000
0.000000
0.000000
0.000000
0.000000
0.000000
0.000000
0.000000
0.000000
0.000000
0.000000
0.000000
0.000000
0.000000
0.000000
0.000000
0.000000
0.000000
0.000000
0.000000
0.000000
0.000000
0.000000
0.000000
0.000000
0.000000
0.000000
0.000000
0.000000
0.000000
0.000000
0.000000
0.000000
0.000000
0.000000
0.000000
0.000000
0.000000
0.000000
0.000000
0.000000
0.000000
0.000000
0.000000
0.000000
0.000000
0.000000
0.000000
0.000000
0.000000
0.000000
0.000000
0.000000
0.000000
0.000000
0.000000
0.000000
0.000000
0.000000
0.000000
0.000000
0.000000
0.000000
0.000000
0.000000
0.000000
0.000000
0.000000
0.000000
0.000000
0.000000
0.000000
0.000000
0.000000
0.000000
0.000000
0.000000
0.000000
0.000000
0.000000
0.000000
0.000000
0.000000
0.000000
0.000000
0.000000
0.000000
0.000000
0.000000
0.000000
0.000000
0.000000
0.000000
0.000000
0.000000
0.000000
0.000000
0.000000
0.000000
0.000000
0.000000
0.000000
0.000000
0.000000
0.000000
0.000000
0.000000
0.000000
0.000000
0.000000
0.000000
0.000000
0.000000
0.000000
0.000000
0.000000
0.000000
0.000000
0.000000
0.000000
0.000000
0.000000
0.000000
0.000000
0.000000
0.000000
0.000000
0.000000
0.000000
0.000000
0.000000
0.000000
0.000000
0.000000
0.000000
0.000000
0.000000
0.000000
0.000000
0.000000
0.000000
0.000000
0.000000
0.000000
0.000000
0.000000
0.000000
0.000000
0.000000
0.000000
0.000000
0.000000
0.000000
0.000000
0.000000
0.000000
0.000000
0.000000
0.000000
0.000000
0.000000
0.000000
0.000000
0.000000
0.000000
0.000000
0.000000
0.000000
0.000000
0.000000
0.000000
0.000000
0.000000
0.000000
0.000000
0.000000
0.000000
0.000000
0.000000
0.000000
0.000000
0.000000
0.000000
0.000000

SCALARS u_x FLOAT 1
LOOKUP_TABLE default
0.000000
0.000000
0.000000
0.000000
0.000000
0.000000
0.000000
0.000000
0.000000
0.000000
0.000000
0.000000
0.000000
0.000000
0.000000
0.000000
0.000000
0.000000
0.000000
0.000000
0.000000
0.000000
0.000000
0.000000
0.000000
0.000000
0.000000
0.000000
0.000000
0.000000
0.000000
0.000000
0.000000
0.000000
0.000000
0.000000
0.000000
0.000000
0.000000
0.000000
0.000000
0.000000
0.000000
0.000000
0.000000
0.000000
0.000000
0.000000
0.000000
0.000000
0.000000
0.000000
0.000000
0.000000
0.000000
0.000000
0.000000
0.000000
0.000000
0.000000
0.000000
0.000000
0.000000
0.000000
0.000000
0.000000
0.000000
0.000000
0.000000
0.000000
0.000000
0.000000
0.000000
0.000000
0.000000
0.000000
0.000000
0.000000
0.000000
0.000000
0.000000
0.000000
0.000000
0.000000
0.000000
0.000000
0.000000
0.000000
0.000000
0.000000
0.000000
0.000000
0.000000
0.000000
0.000000
0.000000
0.000000
0.000000
0.000000
0.000000
0.000000
0.000000
0.000000
0.000000
0.000000
0.000000
0.000000
0.000000
0.000000
0.000000
0.000000
0.000000
0.000000
0.000000
0.000000
0.000000
0.000000
0.000000
0.000000
0.000000
0.000000
0.000000
0.000000
0.000000
0.000000
0.000000
0.000000
0.000000
0.000000
0.000000
0.000000
0.000000
0.000000
0.000000
0.000000
0.000000
0.000000
0.000000
0.000000
0.000000
0.000000
0.000000
0.000000
0.000000
0.000000
0.000000
0.000000
0.000000
0.000000
0.000000
0.000000
0.000000
0.000000
0.000000
0.000000
0.000000
0.000000
0.000000
0.000000
0.000000
0.000000
0.000000
0.000000
0.000000
0.000000
0.000000
0.000000
0.000000
0.000000
0.000000
0.000000
0.000000
0.000000
0.000000
0.000000
0.000000
0.000000
0.000000
0.000000
0.000000
0.000000
0.000000
0.000000
0.000000
0.000000
0.000000
0.000000
0.000000
0.000000
0.000000
0.000000
0.000000
0.000000
0.000000
0.000000
0.000000
0.000000
0.000000
0.000000
0.000000
0.000000
0.000000
0.000000
0.000000
0.000000
0.000000
0.000000
0.000000
0.000000
0.000000
0.000000
0.000000
0.000000
0.000000
0.000000
0.000000
0.000000
0.000000
0.000000
0.000000
0.000000
0.000000
0.000000
0.000000
0.000000
0.000000
0.000000
0.000000
0.000000
0.000000
0.000000
0.000000
0.000000
0.000000
0.000000
0.000000
0.000000
0.000000
0.000000
0.000000
0.000000
0.000000
0.000000
0.000000
0.000000
0.000000
0.000000
0.000000
0.000000
0.000000
0.000000
0.000000
0.000000
0.000000
0.000000
0.000000

SCALARS u_y FLOAT 1
LOOKUP_TABLE default
-0.130915
-0.392744
-0.130915
-0.392744
-0.654396
-0.915463
-0.654396
-0.915463
-1.175957
-1.435764
-1.175957
-1.435764
-1.694956
-1.953640
-1.694956
-1.953640
-2.211821
-2.469415
-2.211821
-2.469415
-2.726412
-2.982771
-2.726412
-2.982771
-3.238520
-3.493685
-3.238520
-3.493685
-3.748287
-4.002264
-3.748287
-4.002264
-4.255611
-4.508303
-4.255611
-4.508303
-4.760359
-5.011799
-4.760359
-5.011799
-5.262572
-5.512676
-5.262572
-5.512676
-5.762084
-6.010817
-5.762084
-6.010817
-6.258883
-6.506280
-6.258883
-6.506280
-6.752962
-6.998969
-6.752962
-6.998969
-7.244198
-7.488714
-7.244198
-7.488714
-7.732540
-7.975619
-7.732540
-7.975619
-8.217939
-8.459436
-8.217939
-8.459436
-8.700229
-8.940177
-8.700229
-8.940177
-9.179371
-9.417713
-9.179371
-9.417713
-9.655260
-9.891959
-9.655260
-9.891959
-10.127791
-10.362890
-10.127791
-10.362890
-10.597019
-10.830355
-10.597019
-10.830355
-11.062682
-11.294199
-11.062682
-11.294199
-11.524786
-11.754463
-11.524786
-11.754463
-11.983217
-12.210934
-11.983217
-12.210934
-12.437757
-12.663593
-12.437757
-12.663593
-12.888332
-13.112165
-12.888332
-13.112165
-13.334884
-13.556645
-13.334884
-13.556645
-13.777334
-13.996952
-13.777334
-13.996952
-14.215428
-14.432766
-14.215428
-14.432766
-14.648955
-14.863957
-14.648955
-14.863957
-15.077883
-15.290623
-15.077883
-15.290623
-15.502098
-15.712420
-15.502098
-15.712420
-15.921354
-16.129061
-15.921354
-16.129061
-16.335520
-16.540538
-16.335520
-16.540538
-16.744360
-16.946673
-16.744360
-16.946673
-17.147651
-17.347146
-17.147651
-17.347146
-17.545168
-17.741647
-17.545168
-17.741647
-17.936627
-18.130078
-17.936627
-18.130078
-18.322073
-18.512349
-18.322073
-18.512349
-18.701014
-18.887829
-18.701014
-18.887829
-19.072935
-19.256220
-19.072935
-19.256220
-19.437681
-19.617640
-19.437681
-19.617640
-19.795559
-19.971678
-19.795559
-19.971678
-20.145672
-20.317575
-20.145672
-20.317575
-20.487149
-20.654746
-20.487149
-20.654746
-20.820264
-20.983552
-20.820264
-20.983552
-21.144457
-21.303256
-21.144457
-21.303256
-21.459354
-21.613017
-21.459354
-21.613017
-21.763962
-21.912451
-21.763962
-21.912451
-22.058105
-22.200779
-22.058105
-22.200779
-22.340749
-22.477472
-22.340749
-22.477472
-22.611326
-22.741795
-22.611326
-22.741795
-22.869186
-22.992995
-22.869186
-22.992995
-23.113071
-23.229626
-23.113071
-23.229626
-23.342195
-23.450957
-23.342195
-23.450957
-23.555154
-23.655119
-23.555154
-23.655119
-23.750723
-23.841941
-23.750723
-23.841941
-23.928259
-24.008634
-23.928259
-24.008634
-24.083961
-24.153526
-24.083961
-24.153526
-24.217857
-24.274719
-24.217857
-24.274719
-24.325217
-24.368562
-24.325217
-24.368562
-24.405080
-24.431653
-24.405080
-24.431653
-24.453228
-24.469087
-24.453228
-24.469087

