# vtk DataFile Version 2.0
MATLAB generated vtk file, WMC
ASCII
DATASET UNSTRUCTURED_GRID
POINTS 256 double
0.195312 0.078328 0.000000 
0.195312 0.234985 0.000000 
0.585938 0.078328 0.000000 
0.585938 0.234985 0.000000 
0.195312 0.391857 0.000000 
0.195312 0.549441 0.000000 
0.585938 0.391857 0.000000 
0.585938 0.549441 0.000000 
0.195312 0.707722 0.000000 
0.195312 0.866756 0.000000 
0.585938 0.707722 0.000000 
0.585938 0.866756 0.000000 
0.195312 1.026305 0.000000 
0.195312 1.186429 0.000000 
0.585938 1.026305 0.000000 
0.585938 1.186429 0.000000 
0.195312 1.347163 0.000000 
0.195312 1.508610 0.000000 
0.585938 1.347163 0.000000 
0.585938 1.508610 0.000000 
0.195312 1.670727 0.000000 
0.195312 1.833451 0.000000 
0.585938 1.670727 0.000000 
0.585938 1.833451 0.000000 
0.195312 1.996782 0.000000 
0.195312 2.160806 0.000000 
0.585938 1.996782 0.000000 
0.585938 2.160806 0.000000 
0.195312 2.325508 0.000000 
0.195312 2.490901 0.000000 
0.585938 2.325508 0.000000 
0.585938 2.490901 0.000000 
0.195312 2.656946 0.000000 
0.195312 2.823670 0.000000 
0.585938 2.656946 0.000000 
0.585938 2.823670 0.000000 
0.195312 2.991102 0.000000 
0.195312 3.159251 0.000000 
0.585938 2.991102 0.000000 
0.585938 3.159251 0.000000 
0.195312 3.328103 0.000000 
0.195312 3.497637 0.000000 
0.585938 3.328103 0.000000 
0.585938 3.497637 0.000000 
0.195312 3.667900 0.000000 
0.195312 3.838875 0.000000 
0.585938 3.667900 0.000000 
0.585938 3.838875 0.000000 
0.195312 4.010648 0.000000 
0.195312 4.183152 0.000000 
0.585938 4.010648 0.000000 
0.585938 4.183152 0.000000 
0.195312 4.356451 0.000000 
0.195312 4.530479 0.000000 
0.585938 4.356451 0.000000 
0.585938 4.530479 0.000000 
0.195312 4.705355 0.000000 
0.195312 4.880960 0.000000 
0.585938 4.705355 0.000000 
0.585938 4.880960 0.000000 
0.195312 5.057299 0.000000 
0.195312 5.234441 0.000000 
0.585938 5.057299 0.000000 
0.585938 5.234441 0.000000 
0.195312 5.412416 0.000000 
0.195312 5.591261 0.000000 
0.585938 5.412416 0.000000 
0.585938 5.591261 0.000000 
0.195312 5.770826 0.000000 
0.195312 5.951320 0.000000 
0.585938 5.770826 0.000000 
0.585938 5.951320 0.000000 
0.195312 6.132652 0.000000 
0.195312 6.314902 0.000000 
0.585938 6.132652 0.000000 
0.585938 6.314902 0.000000 
0.195312 6.497944 0.000000 
0.195312 6.681851 0.000000 
0.585938 6.497944 0.000000 
0.585938 6.681851 0.000000 
0.195312 6.866730 0.000000 
0.195312 7.052405 0.000000 
0.585938 6.866730 0.000000 
0.585938 7.052405 0.000000 
0.195312 7.239134 0.000000 
0.195312 7.426668 0.000000 
0.585938 7.239134 0.000000 
0.585938 7.426668 0.000000 
0.195312 7.615253 0.000000 
0.195312 7.804734 0.000000 
0.585938 7.615253 0.000000 
0.585938 7.804734 0.000000 
0.195312 7.995172 0.000000 
0.195312 8.186603 0.000000 
0.585938 7.995172 0.000000 
0.585938 8.186603 0.000000 
0.195312 8.379021 0.000000 
0.195312 8.572540 0.000000 
0.585938 8.379021 0.000000 
0.585938 8.572540 0.000000 
0.195312 8.766953 0.000000 
0.195312 8.962377 0.000000 
0.585938 8.766953 0.000000 
0.585938 8.962377 0.000000 
0.195312 9.158881 0.000000 
0.195312 9.356360 0.000000 
0.585938 9.158881 0.000000 
0.585938 9.356360 0.000000 
0.195312 9.555067 0.000000 
0.195312 9.754775 0.000000 
0.585938 9.555067 0.000000 
0.585938 9.754775 0.000000 
0.195312 9.955683 0.000000 
0.195312 10.157680 0.000000 
0.585938 9.955683 0.000000 
0.585938 10.157680 0.000000 
0.195312 10.360763 0.000000 
0.195312 10.565023 0.000000 
0.585938 10.360763 0.000000 
0.585938 10.565023 0.000000 
0.195312 10.770483 0.000000 
0.195312 10.977230 0.000000 
0.585938 10.770483 0.000000 
0.585938 10.977230 0.000000 
0.195312 11.185087 0.000000 
0.195312 11.394160 0.000000 
0.585938 11.185087 0.000000 
0.585938 11.394160 0.000000 
0.195312 11.604515 0.000000 
0.195312 11.815939 0.000000 
0.585938 11.604515 0.000000 
0.585938 11.815939 0.000000 
0.195312 12.028785 0.000000 
0.195312 12.242907 0.000000 
0.585938 12.028785 0.000000 
0.585938 12.242907 0.000000 
0.195312 12.458399 0.000000 
0.195312 12.675417 0.000000 
0.585938 12.458399 0.000000 
0.585938 12.675417 0.000000 
0.195312 12.893532 0.000000 
0.195312 13.113203 0.000000 
0.585938 12.893532 0.000000 
0.585938 13.113203 0.000000 
0.195312 13.334160 0.000000 
0.195312 13.556615 0.000000 
0.585938 13.334160 0.000000 
0.585938 13.556615 0.000000 
0.195312 13.780582 0.000000 
0.195312 14.006063 0.000000 
0.585938 13.780582 0.000000 
0.585938 14.006063 0.000000 
0.195312 14.233149 0.000000 
0.195312 14.461743 0.000000 
0.585938 14.233149 0.000000 
0.585938 14.461743 0.000000 
0.195312 14.691769 0.000000 
0.195312 14.923548 0.000000 
0.585938 14.691769 0.000000 
0.585938 14.923548 0.000000 
0.195312 15.156759 0.000000 
0.195312 15.391782 0.000000 
0.585938 15.156759 0.000000 
0.585938 15.391782 0.000000 
0.195312 15.628397 0.000000 
0.195312 15.866772 0.000000 
0.585938 15.628397 0.000000 
0.585938 15.866772 0.000000 
0.195312 16.107136 0.000000 
0.195312 16.348993 0.000000 
0.585938 16.107136 0.000000 
0.585938 16.348993 0.000000 
0.195312 16.593030 0.000000 
0.195312 16.838722 0.000000 
0.585938 16.593030 0.000000 
0.585938 16.838722 0.000000 
0.195312 17.086473 0.000000 
0.195312 17.336040 0.000000 
0.585938 17.086473 0.000000 
0.585938 17.336040 0.000000 
0.195312 17.587683 0.000000 
0.195312 17.841350 0.000000 
0.585938 17.587683 0.000000 
0.585938 17.841350 0.000000 
0.195312 18.097076 0.000000 
0.195312 18.354961 0.000000 
0.585938 18.097076 0.000000 
0.585938 18.354961 0.000000 
0.195312 18.615181 0.000000 
0.195312 18.877211 0.000000 
0.585938 18.615181 0.000000 
0.585938 18.877211 0.000000 
0.195312 19.141983 0.000000 
0.195312 19.408802 0.000000 
0.585938 19.141983 0.000000 
0.585938 19.408802 0.000000 
0.195312 19.678359 0.000000 
0.195312 19.950014 0.000000 
0.585938 19.678359 0.000000 
0.585938 19.950014 0.000000 
0.195312 20.224417 0.000000 
0.195312 20.501476 0.000000 
0.585938 20.224417 0.000000 
0.585938 20.501476 0.000000 
0.195312 20.780907 0.000000 
0.195312 21.063480 0.000000 
0.585938 20.780907 0.000000 
0.585938 21.063480 0.000000 
0.195312 21.348572 0.000000 
0.195312 21.636763 0.000000 
0.585938 21.348572 0.000000 
0.585938 21.636763 0.000000 
0.195312 21.927456 0.000000 
0.195312 22.221427 0.000000 
0.585938 21.927456 0.000000 
0.585938 22.221427 0.000000 
0.195312 22.518879 0.000000 
0.195312 22.819198 0.000000 
0.585938 22.518879 0.000000 
0.585938 22.819198 0.000000 
0.195312 23.122818 0.000000 
0.195312 23.429706 0.000000 
0.585938 23.122818 0.000000 
0.585938 23.429706 0.000000 
0.195312 23.740767 0.000000 
0.195312 24.055462 0.000000 
0.585938 23.740767 0.000000 
0.585938 24.055462 0.000000 
0.195312 24.373680 0.000000 
0.195312 24.695646 0.000000 
0.585938 24.373680 0.000000 
0.585938 24.695646 0.000000 
0.195312 25.021783 0.000000 
0.195312 25.352441 0.000000 
0.585938 25.021783 0.000000 
0.585938 25.352441 0.000000 
0.195312 25.687212 0.000000 
0.195312 26.027120 0.000000 
0.585938 25.687212 0.000000 
0.585938 26.027120 0.000000 
0.195312 26.371156 0.000000 
0.195312 26.720535 0.000000 
0.585938 26.371156 0.000000 
0.585938 26.720535 0.000000 
0.195312 27.074355 0.000000 
0.195312 27.434147 0.000000 
0.585938 27.074355 0.000000 
0.585938 27.434147 0.000000 
0.195312 27.798851 0.000000 
0.195312 28.170641 0.000000 
0.585938 27.798851 0.000000 
0.585938 28.170641 0.000000 
0.195312 28.547139 0.000000 
0.195312 28.929475 0.000000 
0.585938 28.547139 0.000000 
0.585938 28.929475 0.000000 

POINT_DATA 256
SCALARS sigma_xx FLOAT 1
LOOKUP_TABLE default
0.000000
0.000000
0.000000
0.000000
0.000000
0.000000
0.000000
0.000000
0.000000
0.000000
0.000000
0.000000
-0.000000
-0.000000
-0.000000
-0.000000
-0.000000
-0.000000
-0.000000
-0.000000
-0.000000
-0.000000
-0.000000
-0.000000
-0.000000
-0.000000
-0.000000
-0.000000
0.000000
-0.000000
0.000000
-0.000000
-0.000000
-0.000000
-0.000000
-0.000000
-0.000000
0.000000
-0.000000
0.000000
0.000000
-0.000000
0.000000
-0.000000
0.000000
-0.000000
0.000000
-0.000000
-0.000000
-0.000000
-0.000000
-0.000000
-0.000000
-0.000000
-0.000000
-0.000000
-0.000000
-0.000000
-0.000000
-0.000000
-0.000000
-0.000000
-0.000000
-0.000000
-0.000000
-0.000000
-0.000000
-0.000000
-0.000000
-0.000000
-0.000000
-0.000000
-0.000000
-0.000000
-0.000000
-0.000000
-0.000000
-0.000000
-0.000000
-0.000000
-0.000000
-0.000000
-0.000000
-0.000000
-0.000000
-0.000000
-0.000000
-0.000000
-0.000000
-0.000000
-0.000000
-0.000000
-0.000000
-0.000000
-0.000000
-0.000000
-0.000000
-0.000000
0.000000
-0.000000
-0.000000
-0.000000
-0.000000
-0.000000
-0.000000
-0.000000
-0.000000
-0.000000
-0.000000
-0.000000
-0.000000
-0.000000
-0.000000
-0.000000
-0.000000
-0.000000
-0.000000
-0.000000
-0.000000
-0.000000
-0.000000
-0.000000
-0.000000
-0.000000
-0.000000
-0.000000
-0.000000
-0.000000
-0.000000
-0.000000
-0.000000
-0.000000
-0.000000
-0.000000
-0.000000
-0.000000
-0.000000
-0.000000
-0.000000
-0.000000
-0.000000
-0.000000
-0.000000
-0.000000
-0.000000
-0.000000
-0.000000
-0.000000
-0.000000
-0.000000
-0.000000
-0.000000
-0.000000
-0.000000
-0.000000
-0.000000
-0.000000
-0.000000
-0.000000
-0.000000
0.000000
-0.000000
-0.000000
-0.000000
-0.000000
-0.000000
-0.000000
-0.000000
-0.000000
-0.000000
-0.000000
-0.000000
-0.000000
-0.000000
-0.000000
-0.000000
-0.000000
-0.000000
0.000000
-0.000000
-0.000000
-0.000000
-0.000000
-0.000000
-0.000000
-0.000000
-0.000000
-0.000000
-0.000000
-0.000000
-0.000000
-0.000000
-0.000000
0.000000
-0.000000
-0.000000
-0.000000
-0.000000
-0.000000
-0.000000
-0.000000
-0.000000
-0.000000
-0.000000
-0.000000
0.000000
-0.000000
0.000000
-0.000000
-0.000000
-0.000000
-0.000000
0.000000
-0.000000
-0.000000
-0.000000
0.000000
-0.000000
0.000000
-0.000000
-0.000000
-0.000000
-0.000000
-0.000000
0.000000
-0.000000
0.000000
-0.000000
0.000000
-0.000000
0.000000
-0.000000
0.000000
-0.000000
-0.000000
0.000000
-0.000000
-0.000000
-0.000000
-0.000000
0.000000
-0.000000
0.000000
-0.000000
-0.000000
-0.000000
-0.000000
0.000000
-0.000000
0.000000
-0.000000
0.000000
-0.000000
0.000000
-0.000000
0.000000

SCALARS sigma_yy FLOAT 1
LOOKUP_TABLE default
-22783.062331
-22783.062331
-22783.062331
-22783.062331
-22610.097242
-22410.317609
-22610.097242
-22410.317609
-22164.373876
-22004.282992
-22164.373876
-22004.282992
-21831.514752
-21679.086560
-21831.514752
-21679.086560
-21475.577566
-21284.691037
-21475.577566
-21284.691037
-21099.636031
-20947.585245
-21099.636031
-20947.585245
-20755.358832
-20580.143278
-20755.358832
-20580.143278
-20381.187806
-20217.539581
-20381.187806
-20217.539581
-20027.314494
-19865.647252
-20027.314494
-19865.647252
-19662.987831
-19504.357999
-19662.987831
-19504.357999
-19310.602705
-19149.918225
-19310.602705
-19149.918225
-18951.175334
-18794.772756
-18951.175334
-18794.772756
-18586.892302
-18425.150369
-18586.892302
-18425.150369
-18222.177703
-18056.350259
-18222.177703
-18056.350259
-17859.931526
-17713.375980
-17859.931526
-17713.375980
-17512.884660
-17355.912574
-17512.884660
-17355.912574
-17157.533189
-16983.797606
-17157.533189
-16983.797606
-16805.016497
-16628.505664
-16805.016497
-16628.505664
-16433.616152
-16256.827501
-16433.616152
-16256.827501
-16089.734009
-15910.189031
-16089.734009
-15910.189031
-15715.017484
-15551.905593
-15715.017484
-15551.905593
-15357.547008
-15193.450070
-15357.547008
-15193.450070
-14984.307329
-14835.068237
-14984.307329
-14835.068237
-14639.888452
-14466.207633
-14639.888452
-14466.207633
-14276.638420
-14098.859495
-14276.638420
-14098.859495
-13927.612357
-13757.488397
-13927.612357
-13757.488397
-13567.419220
-13397.001521
-13567.419220
-13397.001521
-13206.678053
-13031.324928
-13206.678053
-13031.324928
-12829.331530
-12676.115785
-12829.331530
-12676.115785
-12481.740619
-12313.028948
-12481.740619
-12313.028948
-12114.093986
-11943.444636
-12114.093986
-11943.444636
-11756.494908
-11601.417521
-11756.494908
-11601.417521
-11402.972186
-11261.564290
-11402.972186
-11261.564290
-11042.018844
-10880.930363
-11042.018844
-10880.930363
-10669.079524
-10518.273817
-10669.079524
-10518.273817
-10333.853472
-10156.334252
-10333.853472
-10156.334252
-9979.847951
-9793.447985
-9979.847951
-9793.447985
-9611.104743
-9432.685066
-9611.104743
-9432.685066
-9231.400690
-9079.242539
-9231.400690
-9079.242539
-8895.879085
-8712.251790
-8895.879085
-8712.251790
-8555.766186
-8352.706694
-8555.766186
-8352.706694
-8189.502638
-7987.574811
-8189.502638
-7987.574811
-7820.585020
-7634.920842
-7820.585020
-7634.920842
-7446.535443
-7281.658077
-7446.535443
-7281.658077
-7083.892514
-6924.918279
-7083.892514
-6924.918279
-6742.897813
-6553.810835
-6742.897813
-6553.810835
-6388.153084
-6191.476530
-6388.153084
-6191.476530
-6020.667640
-5853.360857
-6020.667640
-5853.360857
-5648.375806
-5493.887113
-5648.375806
-5493.887113
-5278.221271
-5144.884076
-5278.221271
-5144.884076
-4916.922551
-4777.788652
-4916.922551
-4777.788652
-4571.281818
-4401.079894
-4571.281818
-4401.079894
-4219.334128
-4047.304166
-4219.334128
-4047.304166
-3870.339453
-3681.441884
-3870.339453
-3681.441884
-3490.847867
-3337.709867
-3490.847867
-3337.709867
-3150.913352
-2978.959798
-3150.913352
-2978.959798
-2757.232152
-2608.383422
-2757.232152
-2608.383422
-2425.994267
-2265.886701
-2425.994267
-2265.886701
-2049.137355
-1899.736723
-2049.137355
-1899.736723
-1689.512154
-1527.113701
-1689.512154
-1527.113701
-1341.288316
-1175.001309
-1341.288316
-1175.001309
-991.813274
-811.805386
-991.813274
-811.805386
-637.530539
-442.774773
-637.530539
-442.774773
-279.858703
-62.010933
-279.858703
-62.010933

SCALARS sigma_zz FLOAT 1
LOOKUP_TABLE default
0.000000
0.000000
0.000000
0.000000
0.000000
0.000000
0.000000
0.000000
0.000000
0.000000
0.000000
0.000000
0.000000
0.000000
0.000000
0.000000
0.000000
0.000000
0.000000
0.000000
0.000000
0.000000
0.000000
0.000000
0.000000
0.000000
0.000000
0.000000
0.000000
0.000000
0.000000
0.000000
0.000000
0.000000
0.000000
0.000000
0.000000
0.000000
0.000000
0.000000
0.000000
0.000000
0.000000
0.000000
0.000000
0.000000
0.000000
0.000000
0.000000
0.000000
0.000000
0.000000
0.000000
0.000000
0.000000
0.000000
0.000000
0.000000
0.000000
0.000000
0.000000
0.000000
0.000000
0.000000
0.000000
0.000000
0.000000
0.000000
0.000000
0.000000
0.000000
0.000000
0.000000
0.000000
0.000000
0.000000
0.000000
0.000000
0.000000
0.000000
0.000000
0.000000
0.000000
0.000000
0.000000
0.000000
0.000000
0.000000
0.000000
0.000000
0.000000
0.000000
0.000000
0.000000
0.000000
0.000000
0.000000
0.000000
0.000000
0.000000
0.000000
0.000000
0.000000
0.000000
0.000000
0.000000
0.000000
0.000000
0.000000
0.000000
0.000000
0.000000
0.000000
0.000000
0.000000
0.000000
0.000000
0.000000
0.000000
0.000000
0.000000
0.000000
0.000000
0.000000
0.000000
0.000000
0.000000
0.000000
0.000000
0.000000
0.000000
0.000000
0.000000
0.000000
0.000000
0.000000
0.000000
0.000000
0.000000
0.000000
0.000000
0.000000
0.000000
0.000000
0.000000
0.000000
0.000000
0.000000
0.000000
0.000000
0.000000
0.000000
0.000000
0.000000
0.000000
0.000000
0.000000
0.000000
0.000000
0.000000
0.000000
0.000000
0.000000
0.000000
0.000000
0.000000
0.000000
0.000000
0.000000
0.000000
0.000000
0.000000
0.000000
0.000000
0.000000
0.000000
0.000000
0.000000
0.000000
0.000000
0.000000
0.000000
0.000000
0.000000
0.000000
0.000000
0.000000
0.000000
0.000000
0.000000
0.000000
0.000000
0.000000
0.000000
0.000000
0.000000
0.000000
0.000000
0.000000
0.000000
0.000000
0.000000
0.000000
0.000000
0.000000
0.000000
0.000000
0.000000
0.000000
0.000000
0.000000
0.000000
0.000000
0.000000
0.000000
0.000000
0.000000
0.000000
0.000000
0.000000
0.000000
0.000000
0.000000
0.000000
0.000000
0.000000
0.000000
0.000000
0.000000
0.000000
0.000000
0.000000
0.000000
0.000000
0.000000
0.000000
0.000000
0.000000
0.000000
0.000000
0.000000
0.000000
0.000000
0.000000
0.000000
0.000000
0.000000
0.000000
0.000000
0.000000
0.000000
0.000000
0.000000
0.000000
0.000000
0.000000

SCALARS sigma_xy FLOAT 1
LOOKUP_TABLE default
0.000000
0.000000
0.000000
0.000000
0.000000
0.000000
0.000000
0.000000
0.000000
0.000000
0.000000
0.000000
0.000000
0.000000
0.000000
0.000000
0.000000
0.000000
0.000000
0.000000
-0.000000
-0.000000
-0.000000
-0.000000
-0.000000
-0.000000
-0.000000
-0.000000
0.000000
0.000000
0.000000
0.000000
0.000000
0.000000
0.000000
0.000000
0.000000
0.000000
0.000000
0.000000
0.000000
0.000000
0.000000
0.000000
0.000000
-0.000000
0.000000
-0.000000
-0.000000
-0.000000
-0.000000
-0.000000
-0.000000
-0.000000
-0.000000
-0.000000
-0.000000
-0.000000
-0.000000
-0.000000
0.000000
0.000000
0.000000
0.000000
0.000000
0.000000
0.000000
0.000000
0.000000
-0.000000
0.000000
-0.000000
-0.000000
-0.000000
-0.000000
-0.000000
-0.000000
-0.000000
-0.000000
-0.000000
0.000000
0.000000
0.000000
0.000000
0.000000
0.000000
0.000000
0.000000
-0.000000
-0.000000
-0.000000
-0.000000
-0.000000
-0.000000
-0.000000
-0.000000
-0.000000
0.000000
0.000000
0.000000
0.000000
0.000000
0.000000
0.000000
-0.000000
-0.000000
-0.000000
-0.000000
-0.000000
0.000000
-0.000000
0.000000
0.000000
0.000000
0.000000
0.000000
0.000000
-0.000000
0.000000
-0.000000
-0.000000
-0.000000
-0.000000
-0.000000
-0.000000
-0.000000
-0.000000
-0.000000
0.000000
0.000000
0.000000
0.000000
0.000000
-0.000000
0.000000
-0.000000
-0.000000
-0.000000
-0.000000
-0.000000
-0.000000
0.000000
-0.000000
0.000000
0.000000
0.000000
0.000000
0.000000
0.000000
0.000000
0.000000
0.000000
-0.000000
-0.000000
-0.000000
-0.000000
0.000000
0.000000
0.000000
0.000000
0.000000
-0.000000
-0.000000
-0.000000
-0.000000
-0.000000
-0.000000
-0.000000
-0.000000
0.000000
-0.000000
0.000000
0.000000
0.000000
0.000000
0.000000
0.000000
-0.000000
0.000000
-0.000000
-0.000000
0.000000
-0.000000
0.000000
0.000000
0.000000
0.000000
0.000000
0.000000
0.000000
0.000000
-0.000000
0.000000
0.000000
0.000000
-0.000000
0.000000
0.000000
0.000000
0.000000
-0.000000
-0.000000
-0.000000
-0.000000
-0.000000
0.000000
-0.000000
0.000000
0.000000
0.000000
0.000000
0.000000
0.000000
-0.000000
-0.000000
-0.000000
0.000000
0.000000
0.000000
0.000000
-0.000000
-0.000000
-0.000000
-0.000000
0.000000
0.000000
0.000000
0.000000
0.000000
-0.000000
0.000000
-0.000000
0.000000
-0.000000
-0.000000
0.000000
0.000000
0.000000
0.000000
0.000000
0.000000
0.000000
0.000000
0.000000
-0.000000
-0.000000
-0.000000
0.000000
0.000000
0.000000
-0.000000
0.000000
0.000000
0.000000
0.000000
0.000000

SCALARS sigma_yz FLOAT 1
LOOKUP_TABLE default
0.000000
0.000000
0.000000
0.000000
0.000000
0.000000
0.000000
0.000000
0.000000
0.000000
0.000000
0.000000
0.000000
0.000000
0.000000
0.000000
0.000000
0.000000
0.000000
0.000000
0.000000
0.000000
0.000000
0.000000
0.000000
0.000000
0.000000
0.000000
0.000000
0.000000
0.000000
0.000000
0.000000
0.000000
0.000000
0.000000
0.000000
0.000000
0.000000
0.000000
0.000000
0.000000
0.000000
0.000000
0.000000
0.000000
0.000000
0.000000
0.000000
0.000000
0.000000
0.000000
0.000000
0.000000
0.000000
0.000000
0.000000
0.000000
0.000000
0.000000
0.000000
0.000000
0.000000
0.000000
0.000000
0.000000
0.000000
0.000000
0.000000
0.000000
0.000000
0.000000
0.000000
0.000000
0.000000
0.000000
0.000000
0.000000
0.000000
0.000000
0.000000
0.000000
0.000000
0.000000
0.000000
0.000000
0.000000
0.000000
0.000000
0.000000
0.000000
0.000000
0.000000
0.000000
0.000000
0.000000
0.000000
0.000000
0.000000
0.000000
0.000000
0.000000
0.000000
0.000000
0.000000
0.000000
0.000000
0.000000
0.000000
0.000000
0.000000
0.000000
0.000000
0.000000
0.000000
0.000000
0.000000
0.000000
0.000000
0.000000
0.000000
0.000000
0.000000
0.000000
0.000000
0.000000
0.000000
0.000000
0.000000
0.000000
0.000000
0.000000
0.000000
0.000000
0.000000
0.000000
0.000000
0.000000
0.000000
0.000000
0.000000
0.000000
0.000000
0.000000
0.000000
0.000000
0.000000
0.000000
0.000000
0.000000
0.000000
0.000000
0.000000
0.000000
0.000000
0.000000
0.000000
0.000000
0.000000
0.000000
0.000000
0.000000
0.000000
0.000000
0.000000
0.000000
0.000000
0.000000
0.000000
0.000000
0.000000
0.000000
0.000000
0.000000
0.000000
0.000000
0.000000
0.000000
0.000000
0.000000
0.000000
0.000000
0.000000
0.000000
0.000000
0.000000
0.000000
0.000000
0.000000
0.000000
0.000000
0.000000
0.000000
0.000000
0.000000
0.000000
0.000000
0.000000
0.000000
0.000000
0.000000
0.000000
0.000000
0.000000
0.000000
0.000000
0.000000
0.000000
0.000000
0.000000
0.000000
0.000000
0.000000
0.000000
0.000000
0.000000
0.000000
0.000000
0.000000
0.000000
0.000000
0.000000
0.000000
0.000000
0.000000
0.000000
0.000000
0.000000
0.000000
0.000000
0.000000
0.000000
0.000000
0.000000
0.000000
0.000000
0.000000
0.000000
0.000000
0.000000
0.000000
0.000000
0.000000
0.000000
0.000000
0.000000
0.000000
0.000000
0.000000
0.000000
0.000000
0.000000
0.000000
0.000000
0.000000
0.000000

SCALARS sigma_zx FLOAT 1
LOOKUP_TABLE default
0.000000
0.000000
0.000000
0.000000
0.000000
0.000000
0.000000
0.000000
0.000000
0.000000
0.000000
0.000000
0.000000
0.000000
0.000000
0.000000
0.000000
0.000000
0.000000
0.000000
0.000000
0.000000
0.000000
0.000000
0.000000
0.000000
0.000000
0.000000
0.000000
0.000000
0.000000
0.000000
0.000000
0.000000
0.000000
0.000000
0.000000
0.000000
0.000000
0.000000
0.000000
0.000000
0.000000
0.000000
0.000000
0.000000
0.000000
0.000000
0.000000
0.000000
0.000000
0.000000
0.000000
0.000000
0.000000
0.000000
0.000000
0.000000
0.000000
0.000000
0.000000
0.000000
0.000000
0.000000
0.000000
0.000000
0.000000
0.000000
0.000000
0.000000
0.000000
0.000000
0.000000
0.000000
0.000000
0.000000
0.000000
0.000000
0.000000
0.000000
0.000000
0.000000
0.000000
0.000000
0.000000
0.000000
0.000000
0.000000
0.000000
0.000000
0.000000
0.000000
0.000000
0.000000
0.000000
0.000000
0.000000
0.000000
0.000000
0.000000
0.000000
0.000000
0.000000
0.000000
0.000000
0.000000
0.000000
0.000000
0.000000
0.000000
0.000000
0.000000
0.000000
0.000000
0.000000
0.000000
0.000000
0.000000
0.000000
0.000000
0.000000
0.000000
0.000000
0.000000
0.000000
0.000000
0.000000
0.000000
0.000000
0.000000
0.000000
0.000000
0.000000
0.000000
0.000000
0.000000
0.000000
0.000000
0.000000
0.000000
0.000000
0.000000
0.000000
0.000000
0.000000
0.000000
0.000000
0.000000
0.000000
0.000000
0.000000
0.000000
0.000000
0.000000
0.000000
0.000000
0.000000
0.000000
0.000000
0.000000
0.000000
0.000000
0.000000
0.000000
0.000000
0.000000
0.000000
0.000000
0.000000
0.000000
0.000000
0.000000
0.000000
0.000000
0.000000
0.000000
0.000000
0.000000
0.000000
0.000000
0.000000
0.000000
0.000000
0.000000
0.000000
0.000000
0.000000
0.000000
0.000000
0.000000
0.000000
0.000000
0.000000
0.000000
0.000000
0.000000
0.000000
0.000000
0.000000
0.000000
0.000000
0.000000
0.000000
0.000000
0.000000
0.000000
0.000000
0.000000
0.000000
0.000000
0.000000
0.000000
0.000000
0.000000
0.000000
0.000000
0.000000
0.000000
0.000000
0.000000
0.000000
0.000000
0.000000
0.000000
0.000000
0.000000
0.000000
0.000000
0.000000
0.000000
0.000000
0.000000
0.000000
0.000000
0.000000
0.000000
0.000000
0.000000
0.000000
0.000000
0.000000
0.000000
0.000000
0.000000
0.000000
0.000000
0.000000
0.000000
0.000000
0.000000
0.000000
0.000000
0.000000
0.000000
0.000000
0.000000

SCALARS u_x FLOAT 1
LOOKUP_TABLE default
0.000000
0.000000
0.000000
0.000000
0.000000
0.000000
0.000000
0.000000
0.000000
0.000000
0.000000
0.000000
0.000000
0.000000
0.000000
0.000000
0.000000
0.000000
0.000000
0.000000
0.000000
0.000000
0.000000
0.000000
0.000000
0.000000
0.000000
0.000000
0.000000
0.000000
0.000000
0.000000
0.000000
0.000000
0.000000
0.000000
0.000000
0.000000
0.000000
0.000000
0.000000
0.000000
0.000000
0.000000
0.000000
0.000000
0.000000
0.000000
0.000000
0.000000
0.000000
0.000000
0.000000
0.000000
0.000000
0.000000
0.000000
0.000000
0.000000
0.000000
0.000000
0.000000
0.000000
0.000000
0.000000
0.000000
0.000000
0.000000
0.000000
0.000000
0.000000
0.000000
0.000000
0.000000
0.000000
0.000000
0.000000
0.000000
0.000000
0.000000
0.000000
0.000000
0.000000
0.000000
0.000000
0.000000
0.000000
0.000000
0.000000
0.000000
0.000000
0.000000
0.000000
0.000000
0.000000
0.000000
0.000000
0.000000
0.000000
0.000000
0.000000
0.000000
0.000000
0.000000
0.000000
0.000000
0.000000
0.000000
0.000000
0.000000
0.000000
0.000000
0.000000
0.000000
0.000000
0.000000
0.000000
0.000000
0.000000
0.000000
0.000000
0.000000
0.000000
0.000000
0.000000
0.000000
0.000000
0.000000
0.000000
0.000000
0.000000
0.000000
0.000000
0.000000
0.000000
0.000000
0.000000
0.000000
0.000000
0.000000
0.000000
0.000000
0.000000
0.000000
0.000000
0.000000
0.000000
0.000000
0.000000
0.000000
0.000000
0.000000
0.000000
0.000000
0.000000
0.000000
0.000000
0.000000
0.000000
0.000000
0.000000
0.000000
0.000000
0.000000
0.000000
0.000000
0.000000
0.000000
0.000000
0.000000
0.000000
0.000000
0.000000
0.000000
0.000000
0.000000
0.000000
0.000000
0.000000
0.000000
0.000000
0.000000
0.000000
0.000000
0.000000
0.000000
0.000000
0.000000
0.000000
0.000000
0.000000
0.000000
0.000000
0.000000
0.000000
0.000000
0.000000
0.000000
0.000000
0.000000
0.000000
0.000000
0.000000
0.000000
0.000000
0.000000
0.000000
0.000000
0.000000
0.000000
0.000000
0.000000
0.000000
0.000000
0.000000
0.000000
0.000000
0.000000
0.000000
0.000000
0.000000
0.000000
0.000000
0.000000
0.000000
0.000000
0.000000
0.000000
0.000000
0.000000
0.000000
0.000000
0.000000
0.000000
0.000000
0.000000
0.000000
0.000000
0.000000
0.000000
0.000000
0.000000
0.000000
0.000000
0.000000
0.000000
0.000000
0.000000
0.000000
0.000000
0.000000
0.000000
0.000000
0.000000
0.000000
0.000000

SCALARS u_y FLOAT 1
LOOKUP_TABLE default
-0.116984
-0.350953
-0.116984
-0.350953
-0.584706
-0.817746
-0.584706
-0.817746
-1.050091
-1.281681
-1.050091
-1.281681
-1.512758
-1.743259
-1.512758
-1.743259
-1.973150
-2.202328
-1.973150
-2.202328
-2.430836
-2.658736
-2.430836
-2.658736
-2.886031
-3.112632
-2.886031
-3.112632
-3.338555
-3.563786
-3.338555
-3.563786
-3.788366
-4.012268
-3.788366
-4.012268
-4.235461
-4.457937
-4.235461
-4.457937
-4.679709
-4.900800
-4.679709
-4.900800
-5.121163
-5.340813
-5.121163
-5.340813
-5.559664
-5.777785
-5.559664
-5.777785
-5.995111
-6.211708
-5.995111
-6.211708
-6.427458
-6.642477
-6.427458
-6.642477
-6.856763
-7.070246
-6.856763
-7.070246
-7.282897
-7.494676
-7.282897
-7.494676
-7.705736
-7.915868
-7.705736
-7.915868
-8.125161
-8.333535
-8.125161
-8.333535
-8.541118
-8.747837
-8.541118
-8.747837
-8.953583
-9.158532
-8.953583
-9.158532
-9.362429
-9.565519
-9.362429
-9.565519
-9.767560
-9.968703
-9.767560
-9.968703
-10.168890
-10.368085
-10.168890
-10.368085
-10.566291
-10.763397
-10.566291
-10.763397
-10.959609
-11.154810
-10.959609
-11.154810
-11.348931
-11.542077
-11.348931
-11.542077
-11.733996
-11.924912
-11.733996
-11.924912
-12.114629
-12.303258
-12.114629
-12.303258
-12.490800
-12.677164
-12.490800
-12.677164
-12.862329
-13.046207
-12.862329
-13.046207
-13.228975
-13.410528
-13.228975
-13.410528
-13.590797
-13.769998
-13.590797
-13.769998
-13.947778
-14.124281
-13.947778
-14.124281
-14.299414
-14.473021
-14.299414
-14.473021
-14.645530
-14.816484
-14.645530
-14.816484
-14.986153
-15.154322
-14.986153
-15.154322
-15.320981
-15.486125
-15.320981
-15.486125
-15.649663
-15.811694
-15.649663
-15.811694
-15.972293
-16.131140
-15.972293
-16.131140
-16.288553
-16.444156
-16.288553
-16.444156
-16.598165
-16.750415
-16.598165
-16.750415
-16.900676
-17.049444
-16.900676
-17.049444
-17.196032
-17.340966
-17.196032
-17.340966
-17.483840
-17.624897
-17.483840
-17.624897
-17.763880
-17.900838
-17.763880
-17.900838
-18.035737
-18.168476
-18.035737
-18.168476
-18.298881
-18.427477
-18.298881
-18.427477
-18.553330
-18.677135
-18.553330
-18.677135
-18.798204
-18.917174
-18.798204
-18.917174
-19.033395
-19.146962
-19.033395
-19.146962
-19.258156
-19.366208
-19.258156
-19.366208
-19.471740
-19.574174
-19.471740
-19.574174
-19.674107
-19.770761
-19.674107
-19.770761
-19.863934
-19.954240
-19.863934
-19.954240
-20.041244
-20.124981
-20.041244
-20.124981
-20.204545
-20.280476
-20.204545
-20.280476
-20.352882
-20.421541
-20.352882
-20.421541
-20.486029
-20.545997
-20.486029
-20.545997
-20.601851
-20.652567
-20.601851
-20.652567
-20.699157
-20.740403
-20.699157
-20.740403
-20.777208
-20.808040
-20.777208
-20.808040
-20.833962
-20.852797
-20.833962
-20.852797
-20.866923
-20.875212
-20.866923
-20.875212

