# vtk DataFile Version 2.0
MATLAB generated vtk file, WMC
ASCII
DATASET UNSTRUCTURED_GRID
POINTS 256 double
0.195312 0.085586 0.000000 
0.195312 0.256759 0.000000 
0.585938 0.085586 0.000000 
0.585938 0.256759 0.000000 
0.195312 0.428167 0.000000 
0.195312 0.600353 0.000000 
0.585938 0.428167 0.000000 
0.585938 0.600353 0.000000 
0.195312 0.773291 0.000000 
0.195312 0.946938 0.000000 
0.585938 0.773291 0.000000 
0.585938 0.946938 0.000000 
0.195312 1.121108 0.000000 
0.195312 1.295906 0.000000 
0.585938 1.121108 0.000000 
0.585938 1.295906 0.000000 
0.195312 1.471371 0.000000 
0.195312 1.647570 0.000000 
0.585938 1.471371 0.000000 
0.585938 1.647570 0.000000 
0.195312 1.824367 0.000000 
0.195312 2.001813 0.000000 
0.585938 1.824367 0.000000 
0.585938 2.001813 0.000000 
0.195312 2.179921 0.000000 
0.195312 2.358767 0.000000 
0.585938 2.179921 0.000000 
0.585938 2.358767 0.000000 
0.195312 2.538252 0.000000 
0.195312 2.718412 0.000000 
0.585938 2.538252 0.000000 
0.585938 2.718412 0.000000 
0.195312 2.899276 0.000000 
0.195312 3.080878 0.000000 
0.585938 2.899276 0.000000 
0.585938 3.080878 0.000000 
0.195312 3.263198 0.000000 
0.195312 3.446202 0.000000 
0.585938 3.263198 0.000000 
0.585938 3.446202 0.000000 
0.195312 3.629962 0.000000 
0.195312 3.814463 0.000000 
0.585938 3.629962 0.000000 
0.585938 3.814463 0.000000 
0.195312 3.999737 0.000000 
0.195312 4.185689 0.000000 
0.585938 3.999737 0.000000 
0.585938 4.185689 0.000000 
0.195312 4.372423 0.000000 
0.195312 4.559943 0.000000 
0.585938 4.372423 0.000000 
0.585938 4.559943 0.000000 
0.195312 4.748295 0.000000 
0.195312 4.937327 0.000000 
0.585938 4.748295 0.000000 
0.585938 4.937327 0.000000 
0.195312 5.127193 0.000000 
0.195312 5.317838 0.000000 
0.585938 5.127193 0.000000 
0.585938 5.317838 0.000000 
0.195312 5.509268 0.000000 
0.195312 5.701520 0.000000 
0.585938 5.509268 0.000000 
0.585938 5.701520 0.000000 
0.195312 5.894616 0.000000 
0.195312 6.088636 0.000000 
0.585938 5.894616 0.000000 
0.585938 6.088636 0.000000 
0.195312 6.283417 0.000000 
0.195312 6.479108 0.000000 
0.585938 6.283417 0.000000 
0.585938 6.479108 0.000000 
0.195312 6.675591 0.000000 
0.195312 6.872986 0.000000 
0.585938 6.675591 0.000000 
0.585938 6.872986 0.000000 
0.195312 7.071223 0.000000 
0.195312 7.270365 0.000000 
0.585938 7.071223 0.000000 
0.585938 7.270365 0.000000 
0.195312 7.470519 0.000000 
0.195312 7.671479 0.000000 
0.585938 7.470519 0.000000 
0.585938 7.671479 0.000000 
0.195312 7.873524 0.000000 
0.195312 8.076318 0.000000 
0.585938 7.873524 0.000000 
0.585938 8.076318 0.000000 
0.195312 8.280162 0.000000 
0.195312 8.484878 0.000000 
0.585938 8.280162 0.000000 
0.585938 8.484878 0.000000 
0.195312 8.690610 0.000000 
0.195312 8.897369 0.000000 
0.585938 8.690610 0.000000 
0.585938 8.897369 0.000000 
0.195312 9.105081 0.000000 
0.195312 9.313909 0.000000 
0.585938 9.105081 0.000000 
0.585938 9.313909 0.000000 
0.195312 9.523602 0.000000 
0.195312 9.734345 0.000000 
0.585938 9.523602 0.000000 
0.585938 9.734345 0.000000 
0.195312 9.946241 0.000000 
0.195312 10.159152 0.000000 
0.585938 9.946241 0.000000 
0.585938 10.159152 0.000000 
0.195312 10.373320 0.000000 
0.195312 10.588405 0.000000 
0.585938 10.373320 0.000000 
0.585938 10.588405 0.000000 
0.195312 10.804660 0.000000 
0.195312 11.021921 0.000000 
0.585938 10.804660 0.000000 
0.585938 11.021921 0.000000 
0.195312 11.240256 0.000000 
0.195312 11.459850 0.000000 
0.585938 11.240256 0.000000 
0.585938 11.459850 0.000000 
0.195312 11.680645 0.000000 
0.195312 11.902724 0.000000 
0.585938 11.680645 0.000000 
0.585938 11.902724 0.000000 
0.195312 12.125903 0.000000 
0.195312 12.350311 0.000000 
0.585938 12.125903 0.000000 
0.585938 12.350311 0.000000 
0.195312 12.576039 0.000000 
0.195312 12.802820 0.000000 
0.585938 12.576039 0.000000 
0.585938 12.802820 0.000000 
0.195312 13.031016 0.000000 
0.195312 13.260461 0.000000 
0.585938 13.031016 0.000000 
0.585938 13.260461 0.000000 
0.195312 13.491157 0.000000 
0.195312 13.723414 0.000000 
0.585938 13.491157 0.000000 
0.585938 13.723414 0.000000 
0.195312 13.956815 0.000000 
0.195312 14.191839 0.000000 
0.585938 13.956815 0.000000 
0.585938 14.191839 0.000000 
0.195312 14.428120 0.000000 
0.195312 14.665862 0.000000 
0.585938 14.428120 0.000000 
0.585938 14.665862 0.000000 
0.195312 14.905043 0.000000 
0.195312 15.145571 0.000000 
0.585938 14.905043 0.000000 
0.585938 15.145571 0.000000 
0.195312 15.387699 0.000000 
0.195312 15.631308 0.000000 
0.585938 15.387699 0.000000 
0.585938 15.631308 0.000000 
0.195312 15.876303 0.000000 
0.195312 16.123126 0.000000 
0.585938 15.876303 0.000000 
0.585938 16.123126 0.000000 
0.195312 16.371410 0.000000 
0.195312 16.621460 0.000000 
0.585938 16.371410 0.000000 
0.585938 16.621460 0.000000 
0.195312 16.872968 0.000000 
0.195312 17.126239 0.000000 
0.585938 16.872968 0.000000 
0.585938 17.126239 0.000000 
0.195312 17.381472 0.000000 
0.195312 17.638027 0.000000 
0.585938 17.381472 0.000000 
0.585938 17.638027 0.000000 
0.195312 17.896753 0.000000 
0.195312 18.156980 0.000000 
0.585938 17.896753 0.000000 
0.585938 18.156980 0.000000 
0.195312 18.419257 0.000000 
0.195312 18.683339 0.000000 
0.585938 18.419257 0.000000 
0.585938 18.683339 0.000000 
0.195312 18.949403 0.000000 
0.195312 19.217419 0.000000 
0.585938 18.949403 0.000000 
0.585938 19.217419 0.000000 
0.195312 19.487456 0.000000 
0.195312 19.759485 0.000000 
0.585938 19.487456 0.000000 
0.585938 19.759485 0.000000 
0.195312 20.033714 0.000000 
0.195312 20.309657 0.000000 
0.585938 20.033714 0.000000 
0.585938 20.309657 0.000000 
0.195312 20.588278 0.000000 
0.195312 20.868801 0.000000 
0.585938 20.588278 0.000000 
0.585938 20.868801 0.000000 
0.195312 21.151968 0.000000 
0.195312 21.436988 0.000000 
0.585938 21.151968 0.000000 
0.585938 21.436988 0.000000 
0.195312 21.724612 0.000000 
0.195312 22.014871 0.000000 
0.585938 21.724612 0.000000 
0.585938 22.014871 0.000000 
0.195312 22.307400 0.000000 
0.195312 22.602717 0.000000 
0.585938 22.307400 0.000000 
0.585938 22.602717 0.000000 
0.195312 22.900256 0.000000 
0.195312 23.200858 0.000000 
0.585938 22.900256 0.000000 
0.585938 23.200858 0.000000 
0.195312 23.503856 0.000000 
0.195312 23.809676 0.000000 
0.585938 23.503856 0.000000 
0.585938 23.809676 0.000000 
0.195312 24.118727 0.000000 
0.195312 24.430597 0.000000 
0.585938 24.118727 0.000000 
0.585938 24.430597 0.000000 
0.195312 24.745700 0.000000 
0.195312 25.063559 0.000000 
0.585938 24.745700 0.000000 
0.585938 25.063559 0.000000 
0.195312 25.384950 0.000000 
0.195312 25.709587 0.000000 
0.585938 25.384950 0.000000 
0.585938 25.709587 0.000000 
0.195312 26.037487 0.000000 
0.195312 26.369064 0.000000 
0.585938 26.037487 0.000000 
0.585938 26.369064 0.000000 
0.195312 26.704454 0.000000 
0.195312 27.043751 0.000000 
0.585938 26.704454 0.000000 
0.585938 27.043751 0.000000 
0.195312 27.386268 0.000000 
0.195312 27.733394 0.000000 
0.585938 27.386268 0.000000 
0.585938 27.733394 0.000000 
0.195312 28.084275 0.000000 
0.195312 28.439785 0.000000 
0.585938 28.084275 0.000000 
0.585938 28.439785 0.000000 
0.195312 28.799316 0.000000 
0.195312 29.164177 0.000000 
0.585938 28.799316 0.000000 
0.585938 29.164177 0.000000 
0.195312 29.533265 0.000000 
0.195312 29.908168 0.000000 
0.585938 29.533265 0.000000 
0.585938 29.908168 0.000000 
0.195312 30.286350 0.000000 
0.195312 30.669820 0.000000 
0.585938 30.286350 0.000000 
0.585938 30.669820 0.000000 

POINT_DATA 256
SCALARS sigma_xx FLOAT 1
LOOKUP_TABLE default
0.000000
0.000000
0.000000
0.000000
0.000000
-0.000000
0.000000
-0.000000
0.000000
0.000000
0.000000
0.000000
-0.000000
-0.000000
-0.000000
-0.000000
-0.000000
-0.000000
-0.000000
-0.000000
-0.000000
-0.000000
-0.000000
-0.000000
0.000000
-0.000000
0.000000
-0.000000
-0.000000
-0.000000
-0.000000
-0.000000
0.000000
0.000000
0.000000
0.000000
-0.000000
-0.000000
-0.000000
-0.000000
-0.000000
-0.000000
-0.000000
-0.000000
-0.000000
-0.000000
-0.000000
0.000000
0.000000
-0.000000
0.000000
-0.000000
-0.000000
-0.000000
-0.000000
-0.000000
-0.000000
-0.000000
-0.000000
-0.000000
-0.000000
-0.000000
-0.000000
-0.000000
-0.000000
-0.000000
-0.000000
0.000000
-0.000000
-0.000000
-0.000000
-0.000000
0.000000
-0.000000
0.000000
-0.000000
-0.000000
-0.000000
-0.000000
-0.000000
-0.000000
-0.000000
-0.000000
-0.000000
-0.000000
-0.000000
-0.000000
-0.000000
-0.000000
-0.000000
-0.000000
-0.000000
0.000000
-0.000000
0.000000
-0.000000
-0.000000
-0.000000
-0.000000
-0.000000
-0.000000
-0.000000
-0.000000
-0.000000
-0.000000
-0.000000
-0.000000
-0.000000
-0.000000
-0.000000
-0.000000
-0.000000
-0.000000
-0.000000
-0.000000
-0.000000
-0.000000
-0.000000
-0.000000
-0.000000
-0.000000
-0.000000
-0.000000
-0.000000
-0.000000
-0.000000
-0.000000
-0.000000
-0.000000
-0.000000
-0.000000
-0.000000
-0.000000
-0.000000
-0.000000
-0.000000
-0.000000
-0.000000
-0.000000
-0.000000
-0.000000
-0.000000
-0.000000
-0.000000
-0.000000
-0.000000
-0.000000
-0.000000
-0.000000
-0.000000
-0.000000
-0.000000
-0.000000
-0.000000
-0.000000
-0.000000
0.000000
-0.000000
0.000000
-0.000000
-0.000000
0.000000
0.000000
0.000000
-0.000000
0.000000
-0.000000
-0.000000
0.000000
0.000000
0.000000
0.000000
0.000000
-0.000000
0.000000
-0.000000
0.000000
-0.000000
-0.000000
-0.000000
-0.000000
-0.000000
-0.000000
-0.000000
-0.000000
-0.000000
-0.000000
-0.000000
-0.000000
-0.000000
-0.000000
-0.000000
-0.000000
-0.000000
-0.000000
-0.000000
-0.000000
-0.000000
-0.000000
0.000000
-0.000000
-0.000000
-0.000000
-0.000000
-0.000000
-0.000000
-0.000000
-0.000000
0.000000
0.000000
-0.000000
0.000000
-0.000000
-0.000000
-0.000000
-0.000000
0.000000
-0.000000
0.000000
-0.000000
-0.000000
-0.000000
-0.000000
-0.000000
-0.000000
-0.000000
-0.000000
-0.000000
0.000000
-0.000000
0.000000
-0.000000
-0.000000
-0.000000
-0.000000
0.000000
-0.000000
-0.000000
-0.000000
-0.000000
0.000000
-0.000000
-0.000000
-0.000000
-0.000000
-0.000000
-0.000000
0.000000
-0.000000
-0.000000
-0.000000
-0.000000
0.000000
0.000000
0.000000
0.000000

SCALARS sigma_yy FLOAT 1
LOOKUP_TABLE default
-18828.715117
-18828.715117
-18828.715117
-18828.715117
-18677.755149
-18503.409511
-18677.755149
-18503.409511
-18301.008559
-18186.996436
-18301.008559
-18186.996436
-18036.053938
-17902.893935
-18036.053938
-17902.893935
-17725.127873
-17586.374667
-17725.127873
-17586.374667
-17439.218304
-17306.220489
-17439.218304
-17306.220489
-17138.097994
-16997.638164
-17138.097994
-16997.638164
-16847.482447
-16710.793085
-16847.482447
-16710.793085
-16544.200547
-16405.364527
-16544.200547
-16405.364527
-16248.662282
-16119.355496
-16248.662282
-16119.355496
-15949.509818
-15808.676659
-15949.509818
-15808.676659
-15647.615993
-15530.562274
-15647.615993
-15530.562274
-15356.611528
-15214.654445
-15356.611528
-15214.654445
-15052.653515
-14928.147988
-15052.653515
-14928.147988
-14764.262278
-14635.431670
-14764.262278
-14635.431670
-14464.824264
-14337.744169
-14464.824264
-14337.744169
-14171.484585
-14019.344580
-14171.484585
-14019.344580
-13871.724549
-13737.354209
-13871.724549
-13737.354209
-13584.562896
-13434.676546
-13584.562896
-13434.676546
-13291.094909
-13138.329632
-13291.094909
-13138.329632
-12975.185753
-12837.272599
-12975.185753
-12837.272599
-12682.635472
-12554.707775
-12682.635472
-12554.707775
-12383.228912
-12263.028647
-12383.228912
-12263.028647
-12087.730302
-11951.364075
-12087.730302
-11951.364075
-11798.137428
-11649.819702
-11798.137428
-11649.819702
-11512.992847
-11362.425059
-11512.992847
-11362.425059
-11197.480436
-11053.078287
-11197.480436
-11053.078287
-10900.240079
-10765.072879
-10900.240079
-10765.072879
-10601.233599
-10490.414941
-10601.233599
-10490.414941
-10316.634627
-10174.539462
-10316.634627
-10174.539462
-10010.311427
-9867.869483
-10010.311427
-9867.869483
-9713.994676
-9582.647146
-9713.994676
-9582.647146
-9415.317908
-9301.080528
-9415.317908
-9301.080528
-9117.288331
-8992.572205
-9117.288331
-8992.572205
-8822.172367
-8690.584034
-8822.172367
-8690.584034
-8529.174989
-8377.951265
-8529.174989
-8377.951265
-8236.788790
-8081.400317
-8236.788790
-8081.400317
-7945.745261
-7803.583283
-7945.745261
-7803.583283
-7631.195002
-7512.064819
-7631.195002
-7512.064819
-7351.987742
-7190.772979
-7351.987742
-7190.772979
-7060.823988
-6895.948741
-7060.823988
-6895.948741
-6767.095052
-6592.096695
-6767.095052
-6592.096695
-6459.117091
-6311.108756
-6459.117091
-6311.108756
-6153.327996
-6021.427977
-6153.327996
-6021.427977
-5851.975046
-5718.673078
-5851.975046
-5718.673078
-5568.098644
-5412.078942
-5568.098644
-5412.078942
-5273.983402
-5113.578712
-5273.983402
-5113.578712
-4978.716934
-4836.646758
-4978.716934
-4836.646758
-4661.715944
-4538.556072
-4661.715944
-4538.556072
-4361.806697
-4256.107432
-4361.806697
-4256.107432
-4059.553376
-3941.640057
-4059.553376
-3941.640057
-3774.234728
-3640.324393
-3774.234728
-3640.324393
-3491.611571
-3337.555913
-3491.611571
-3337.555913
-3199.096445
-3046.105792
-3199.096445
-3046.105792
-2885.312100
-2744.187184
-2885.312100
-2744.187184
-2593.294936
-2466.541346
-2593.294936
-2466.541346
-2284.620555
-2167.248998
-2284.620555
-2167.248998
-2000.210997
-1866.544533
-2000.210997
-1866.544533
-1681.286054
-1574.887811
-1681.286054
-1574.887811
-1407.601063
-1265.030769
-1407.601063
-1265.030769
-1111.523388
-973.735909
-1111.523388
-973.735909
-812.544210
-665.910361
-812.544210
-665.910361
-518.012699
-372.065917
-518.012699
-372.065917
-261.448330
-19.752257
-261.448330
-19.752257

SCALARS sigma_zz FLOAT 1
LOOKUP_TABLE default
0.000000
0.000000
0.000000
0.000000
0.000000
0.000000
0.000000
0.000000
0.000000
0.000000
0.000000
0.000000
0.000000
0.000000
0.000000
0.000000
0.000000
0.000000
0.000000
0.000000
0.000000
0.000000
0.000000
0.000000
0.000000
0.000000
0.000000
0.000000
0.000000
0.000000
0.000000
0.000000
0.000000
0.000000
0.000000
0.000000
0.000000
0.000000
0.000000
0.000000
0.000000
0.000000
0.000000
0.000000
0.000000
0.000000
0.000000
0.000000
0.000000
0.000000
0.000000
0.000000
0.000000
0.000000
0.000000
0.000000
0.000000
0.000000
0.000000
0.000000
0.000000
0.000000
0.000000
0.000000
0.000000
0.000000
0.000000
0.000000
0.000000
0.000000
0.000000
0.000000
0.000000
0.000000
0.000000
0.000000
0.000000
0.000000
0.000000
0.000000
0.000000
0.000000
0.000000
0.000000
0.000000
0.000000
0.000000
0.000000
0.000000
0.000000
0.000000
0.000000
0.000000
0.000000
0.000000
0.000000
0.000000
0.000000
0.000000
0.000000
0.000000
0.000000
0.000000
0.000000
0.000000
0.000000
0.000000
0.000000
0.000000
0.000000
0.000000
0.000000
0.000000
0.000000
0.000000
0.000000
0.000000
0.000000
0.000000
0.000000
0.000000
0.000000
0.000000
0.000000
0.000000
0.000000
0.000000
0.000000
0.000000
0.000000
0.000000
0.000000
0.000000
0.000000
0.000000
0.000000
0.000000
0.000000
0.000000
0.000000
0.000000
0.000000
0.000000
0.000000
0.000000
0.000000
0.000000
0.000000
0.000000
0.000000
0.000000
0.000000
0.000000
0.000000
0.000000
0.000000
0.000000
0.000000
0.000000
0.000000
0.000000
0.000000
0.000000
0.000000
0.000000
0.000000
0.000000
0.000000
0.000000
0.000000
0.000000
0.000000
0.000000
0.000000
0.000000
0.000000
0.000000
0.000000
0.000000
0.000000
0.000000
0.000000
0.000000
0.000000
0.000000
0.000000
0.000000
0.000000
0.000000
0.000000
0.000000
0.000000
0.000000
0.000000
0.000000
0.000000
0.000000
0.000000
0.000000
0.000000
0.000000
0.000000
0.000000
0.000000
0.000000
0.000000
0.000000
0.000000
0.000000
0.000000
0.000000
0.000000
0.000000
0.000000
0.000000
0.000000
0.000000
0.000000
0.000000
0.000000
0.000000
0.000000
0.000000
0.000000
0.000000
0.000000
0.000000
0.000000
0.000000
0.000000
0.000000
0.000000
0.000000
0.000000
0.000000
0.000000
0.000000
0.000000
0.000000
0.000000
0.000000
0.000000
0.000000
0.000000
0.000000
0.000000
0.000000
0.000000
0.000000
0.000000
0.000000
0.000000
0.000000
0.000000
0.000000
0.000000

SCALARS sigma_xy FLOAT 1
LOOKUP_TABLE default
0.000000
0.000000
0.000000
0.000000
0.000000
-0.000000
0.000000
-0.000000
0.000000
0.000000
0.000000
0.000000
0.000000
0.000000
0.000000
0.000000
0.000000
0.000000
0.000000
0.000000
-0.000000
-0.000000
-0.000000
-0.000000
0.000000
-0.000000
0.000000
-0.000000
0.000000
0.000000
0.000000
0.000000
0.000000
0.000000
0.000000
0.000000
-0.000000
-0.000000
-0.000000
-0.000000
-0.000000
0.000000
-0.000000
0.000000
0.000000
0.000000
0.000000
0.000000
0.000000
0.000000
0.000000
0.000000
0.000000
0.000000
0.000000
0.000000
-0.000000
-0.000000
-0.000000
-0.000000
-0.000000
-0.000000
-0.000000
-0.000000
0.000000
0.000000
0.000000
0.000000
-0.000000
-0.000000
-0.000000
-0.000000
0.000000
0.000000
0.000000
0.000000
0.000000
0.000000
0.000000
0.000000
0.000000
-0.000000
0.000000
-0.000000
-0.000000
-0.000000
-0.000000
-0.000000
-0.000000
-0.000000
-0.000000
-0.000000
0.000000
0.000000
0.000000
0.000000
0.000000
0.000000
0.000000
0.000000
0.000000
0.000000
0.000000
0.000000
-0.000000
-0.000000
-0.000000
-0.000000
-0.000000
0.000000
-0.000000
0.000000
0.000000
0.000000
0.000000
0.000000
0.000000
-0.000000
0.000000
-0.000000
-0.000000
-0.000000
-0.000000
-0.000000
-0.000000
-0.000000
-0.000000
-0.000000
0.000000
0.000000
0.000000
0.000000
0.000000
0.000000
0.000000
0.000000
-0.000000
-0.000000
-0.000000
-0.000000
-0.000000
-0.000000
-0.000000
-0.000000
-0.000000
0.000000
-0.000000
0.000000
0.000000
0.000000
0.000000
0.000000
-0.000000
-0.000000
-0.000000
-0.000000
0.000000
0.000000
0.000000
0.000000
0.000000
0.000000
0.000000
0.000000
-0.000000
0.000000
-0.000000
0.000000
0.000000
0.000000
0.000000
0.000000
0.000000
0.000000
0.000000
0.000000
0.000000
-0.000000
-0.000000
-0.000000
-0.000000
0.000000
-0.000000
0.000000
0.000000
-0.000000
0.000000
-0.000000
-0.000000
0.000000
-0.000000
0.000000
0.000000
0.000000
0.000000
-0.000000
0.000000
-0.000000
0.000000
0.000000
-0.000000
-0.000000
-0.000000
-0.000000
0.000000
0.000000
0.000000
0.000000
0.000000
0.000000
0.000000
0.000000
-0.000000
-0.000000
-0.000000
0.000000
0.000000
0.000000
0.000000
0.000000
-0.000000
-0.000000
-0.000000
0.000000
0.000000
0.000000
0.000000
0.000000
0.000000
-0.000000
0.000000
-0.000000
-0.000000
-0.000000
-0.000000
0.000000
0.000000
0.000000
0.000000
0.000000
0.000000
0.000000
0.000000
0.000000
-0.000000
-0.000000
-0.000000
0.000000
0.000000
-0.000000
-0.000000
-0.000000
0.000000
0.000000
0.000000
0.000000

SCALARS sigma_yz FLOAT 1
LOOKUP_TABLE default
0.000000
0.000000
0.000000
0.000000
0.000000
0.000000
0.000000
0.000000
0.000000
0.000000
0.000000
0.000000
0.000000
0.000000
0.000000
0.000000
0.000000
0.000000
0.000000
0.000000
0.000000
0.000000
0.000000
0.000000
0.000000
0.000000
0.000000
0.000000
0.000000
0.000000
0.000000
0.000000
0.000000
0.000000
0.000000
0.000000
0.000000
0.000000
0.000000
0.000000
0.000000
0.000000
0.000000
0.000000
0.000000
0.000000
0.000000
0.000000
0.000000
0.000000
0.000000
0.000000
0.000000
0.000000
0.000000
0.000000
0.000000
0.000000
0.000000
0.000000
0.000000
0.000000
0.000000
0.000000
0.000000
0.000000
0.000000
0.000000
0.000000
0.000000
0.000000
0.000000
0.000000
0.000000
0.000000
0.000000
0.000000
0.000000
0.000000
0.000000
0.000000
0.000000
0.000000
0.000000
0.000000
0.000000
0.000000
0.000000
0.000000
0.000000
0.000000
0.000000
0.000000
0.000000
0.000000
0.000000
0.000000
0.000000
0.000000
0.000000
0.000000
0.000000
0.000000
0.000000
0.000000
0.000000
0.000000
0.000000
0.000000
0.000000
0.000000
0.000000
0.000000
0.000000
0.000000
0.000000
0.000000
0.000000
0.000000
0.000000
0.000000
0.000000
0.000000
0.000000
0.000000
0.000000
0.000000
0.000000
0.000000
0.000000
0.000000
0.000000
0.000000
0.000000
0.000000
0.000000
0.000000
0.000000
0.000000
0.000000
0.000000
0.000000
0.000000
0.000000
0.000000
0.000000
0.000000
0.000000
0.000000
0.000000
0.000000
0.000000
0.000000
0.000000
0.000000
0.000000
0.000000
0.000000
0.000000
0.000000
0.000000
0.000000
0.000000
0.000000
0.000000
0.000000
0.000000
0.000000
0.000000
0.000000
0.000000
0.000000
0.000000
0.000000
0.000000
0.000000
0.000000
0.000000
0.000000
0.000000
0.000000
0.000000
0.000000
0.000000
0.000000
0.000000
0.000000
0.000000
0.000000
0.000000
0.000000
0.000000
0.000000
0.000000
0.000000
0.000000
0.000000
0.000000
0.000000
0.000000
0.000000
0.000000
0.000000
0.000000
0.000000
0.000000
0.000000
0.000000
0.000000
0.000000
0.000000
0.000000
0.000000
0.000000
0.000000
0.000000
0.000000
0.000000
0.000000
0.000000
0.000000
0.000000
0.000000
0.000000
0.000000
0.000000
0.000000
0.000000
0.000000
0.000000
0.000000
0.000000
0.000000
0.000000
0.000000
0.000000
0.000000
0.000000
0.000000
0.000000
0.000000
0.000000
0.000000
0.000000
0.000000
0.000000
0.000000
0.000000
0.000000
0.000000
0.000000
0.000000
0.000000
0.000000
0.000000
0.000000

SCALARS sigma_zx FLOAT 1
LOOKUP_TABLE default
0.000000
0.000000
0.000000
0.000000
0.000000
0.000000
0.000000
0.000000
0.000000
0.000000
0.000000
0.000000
0.000000
0.000000
0.000000
0.000000
0.000000
0.000000
0.000000
0.000000
0.000000
0.000000
0.000000
0.000000
0.000000
0.000000
0.000000
0.000000
0.000000
0.000000
0.000000
0.000000
0.000000
0.000000
0.000000
0.000000
0.000000
0.000000
0.000000
0.000000
0.000000
0.000000
0.000000
0.000000
0.000000
0.000000
0.000000
0.000000
0.000000
0.000000
0.000000
0.000000
0.000000
0.000000
0.000000
0.000000
0.000000
0.000000
0.000000
0.000000
0.000000
0.000000
0.000000
0.000000
0.000000
0.000000
0.000000
0.000000
0.000000
0.000000
0.000000
0.000000
0.000000
0.000000
0.000000
0.000000
0.000000
0.000000
0.000000
0.000000
0.000000
0.000000
0.000000
0.000000
0.000000
0.000000
0.000000
0.000000
0.000000
0.000000
0.000000
0.000000
0.000000
0.000000
0.000000
0.000000
0.000000
0.000000
0.000000
0.000000
0.000000
0.000000
0.000000
0.000000
0.000000
0.000000
0.000000
0.000000
0.000000
0.000000
0.000000
0.000000
0.000000
0.000000
0.000000
0.000000
0.000000
0.000000
0.000000
0.000000
0.000000
0.000000
0.000000
0.000000
0.000000
0.000000
0.000000
0.000000
0.000000
0.000000
0.000000
0.000000
0.000000
0.000000
0.000000
0.000000
0.000000
0.000000
0.000000
0.000000
0.000000
0.000000
0.000000
0.000000
0.000000
0.000000
0.000000
0.000000
0.000000
0.000000
0.000000
0.000000
0.000000
0.000000
0.000000
0.000000
0.000000
0.000000
0.000000
0.000000
0.000000
0.000000
0.000000
0.000000
0.000000
0.000000
0.000000
0.000000
0.000000
0.000000
0.000000
0.000000
0.000000
0.000000
0.000000
0.000000
0.000000
0.000000
0.000000
0.000000
0.000000
0.000000
0.000000
0.000000
0.000000
0.000000
0.000000
0.000000
0.000000
0.000000
0.000000
0.000000
0.000000
0.000000
0.000000
0.000000
0.000000
0.000000
0.000000
0.000000
0.000000
0.000000
0.000000
0.000000
0.000000
0.000000
0.000000
0.000000
0.000000
0.000000
0.000000
0.000000
0.000000
0.000000
0.000000
0.000000
0.000000
0.000000
0.000000
0.000000
0.000000
0.000000
0.000000
0.000000
0.000000
0.000000
0.000000
0.000000
0.000000
0.000000
0.000000
0.000000
0.000000
0.000000
0.000000
0.000000
0.000000
0.000000
0.000000
0.000000
0.000000
0.000000
0.000000
0.000000
0.000000
0.000000
0.000000
0.000000
0.000000
0.000000
0.000000
0.000000
0.000000
0.000000
0.000000
0.000000

SCALARS u_x FLOAT 1
LOOKUP_TABLE default
0.000000
0.000000
0.000000
0.000000
0.000000
0.000000
0.000000
0.000000
0.000000
0.000000
0.000000
0.000000
0.000000
0.000000
0.000000
0.000000
0.000000
0.000000
0.000000
0.000000
0.000000
0.000000
0.000000
0.000000
0.000000
0.000000
0.000000
0.000000
0.000000
0.000000
0.000000
0.000000
0.000000
0.000000
0.000000
0.000000
0.000000
0.000000
0.000000
0.000000
0.000000
0.000000
0.000000
0.000000
0.000000
0.000000
0.000000
0.000000
0.000000
0.000000
0.000000
0.000000
0.000000
0.000000
0.000000
0.000000
0.000000
0.000000
0.000000
0.000000
0.000000
0.000000
0.000000
0.000000
0.000000
0.000000
0.000000
0.000000
0.000000
0.000000
0.000000
0.000000
0.000000
0.000000
0.000000
0.000000
0.000000
0.000000
0.000000
0.000000
0.000000
0.000000
0.000000
0.000000
0.000000
0.000000
0.000000
0.000000
0.000000
0.000000
0.000000
0.000000
0.000000
0.000000
0.000000
0.000000
0.000000
0.000000
0.000000
0.000000
0.000000
0.000000
0.000000
0.000000
0.000000
0.000000
0.000000
0.000000
0.000000
0.000000
0.000000
0.000000
0.000000
0.000000
0.000000
0.000000
0.000000
0.000000
0.000000
0.000000
0.000000
0.000000
0.000000
0.000000
0.000000
0.000000
0.000000
0.000000
0.000000
0.000000
0.000000
0.000000
0.000000
0.000000
0.000000
0.000000
0.000000
0.000000
0.000000
0.000000
0.000000
0.000000
0.000000
0.000000
0.000000
0.000000
0.000000
0.000000
0.000000
0.000000
0.000000
0.000000
0.000000
0.000000
0.000000
0.000000
0.000000
0.000000
0.000000
0.000000
0.000000
0.000000
0.000000
0.000000
0.000000
0.000000
0.000000
0.000000
0.000000
0.000000
0.000000
0.000000
0.000000
0.000000
0.000000
0.000000
0.000000
0.000000
0.000000
0.000000
0.000000
0.000000
0.000000
0.000000
0.000000
0.000000
0.000000
0.000000
0.000000
0.000000
0.000000
0.000000
0.000000
0.000000
0.000000
0.000000
0.000000
0.000000
0.000000
0.000000
0.000000
0.000000
0.000000
0.000000
0.000000
0.000000
0.000000
0.000000
0.000000
0.000000
0.000000
0.000000
0.000000
0.000000
0.000000
0.000000
0.000000
0.000000
0.000000
0.000000
0.000000
0.000000
0.000000
0.000000
0.000000
0.000000
0.000000
0.000000
0.000000
0.000000
0.000000
0.000000
0.000000
0.000000
0.000000
0.000000
0.000000
0.000000
0.000000
0.000000
0.000000
0.000000
0.000000
0.000000
0.000000
0.000000
0.000000
0.000000
0.000000
0.000000
0.000000
0.000000
0.000000
0.000000
0.000000
0.000000

SCALARS u_y FLOAT 1
LOOKUP_TABLE default
-0.109726
-0.329179
-0.109726
-0.329179
-0.548396
-0.766835
-0.548396
-0.766835
-0.984522
-1.201499
-0.984522
-1.201499
-1.417955
-1.633782
-1.417955
-1.633782
-1.848942
-2.063368
-1.848942
-2.063368
-2.277195
-2.490374
-2.277195
-2.490374
-2.702892
-2.914670
-2.702892
-2.914670
-3.125810
-3.336276
-3.125810
-3.336276
-3.546037
-3.755060
-3.546037
-3.755060
-3.963364
-4.170985
-3.963364
-4.170985
-4.377851
-4.583974
-4.377851
-4.583974
-4.789325
-4.993999
-4.789325
-4.993999
-5.197889
-5.400995
-5.197889
-5.400995
-5.603267
-5.804860
-5.603267
-5.804860
-6.005619
-6.205600
-6.005619
-6.205600
-6.404794
-6.603167
-6.404794
-6.603167
-6.800696
-6.997301
-6.800696
-6.997301
-7.193145
-7.388079
-7.193145
-7.388079
-7.582222
-7.775451
-7.582222
-7.775451
-7.967840
-8.159323
-7.967840
-8.159323
-8.349793
-8.539458
-8.349793
-8.539458
-8.728038
-8.915869
-8.728038
-8.915869
-9.102650
-9.288559
-9.102650
-9.288559
-9.473452
-9.657319
-9.473452
-9.657319
-9.840231
-10.022028
-9.840231
-10.022028
-10.202961
-10.382842
-10.202961
-10.382842
-10.561572
-10.739286
-10.561572
-10.739286
-10.915742
-11.091282
-10.915742
-11.091282
-11.265652
-11.439017
-11.265652
-11.439017
-11.611306
-11.782338
-11.611306
-11.782338
-11.952167
-12.120713
-11.952167
-12.120713
-12.288159
-12.454376
-12.288159
-12.454376
-12.619274
-12.783118
-12.619274
-12.783118
-12.945546
-13.106726
-12.945546
-13.106726
-13.266655
-13.425024
-13.266655
-13.425024
-13.582248
-13.737849
-13.582248
-13.737849
-13.892193
-14.045076
-13.892193
-14.045076
-14.196519
-14.346616
-14.196519
-14.346616
-14.495113
-14.642129
-14.495113
-14.642129
-14.787760
-14.931562
-14.787760
-14.931562
-15.073902
-15.214478
-15.073902
-15.214478
-15.353594
-15.490949
-15.353594
-15.490949
-15.626341
-15.760411
-15.626341
-15.760411
-15.892309
-16.022707
-15.892309
-16.022707
-16.151056
-16.277598
-16.151056
-16.277598
-16.402159
-16.524768
-16.402159
-16.524768
-16.645357
-16.763953
-16.645357
-16.763953
-16.880348
-16.995030
-16.880348
-16.995030
-17.107034
-17.217136
-17.107034
-17.217136
-17.324595
-17.430199
-17.324595
-17.430199
-17.533201
-17.633567
-17.533201
-17.633567
-17.731663
-17.826971
-17.731663
-17.826971
-17.920057
-18.010080
-17.920057
-18.010080
-18.097706
-18.182512
-18.097706
-18.182512
-18.264086
-18.342840
-18.264086
-18.342840
-18.418362
-18.491128
-18.418362
-18.491128
-18.560363
-18.626351
-18.560363
-18.626351
-18.689076
-18.748123
-18.689076
-18.748123
-18.803358
-18.854686
-18.803358
-18.854686
-18.902794
-18.946293
-18.902794
-18.946293
-18.986037
-19.021153
-18.986037
-19.021153
-19.052246
-19.078010
-19.052246
-19.078010
-19.099548
-19.115269
-19.099548
-19.115269
-19.127713
-19.134868
-19.127713
-19.134868

