# vtk DataFile Version 2.0
MATLAB generated vtk file, WMC
ASCII
DATASET UNSTRUCTURED_GRID
POINTS 256 double
0.195312 0.061574 0.000000 
0.195312 0.184723 0.000000 
0.585938 0.061574 0.000000 
0.585938 0.184723 0.000000 
0.195312 0.308042 0.000000 
0.195312 0.431920 0.000000 
0.585938 0.308042 0.000000 
0.585938 0.431920 0.000000 
0.195312 0.556346 0.000000 
0.195312 0.681429 0.000000 
0.585938 0.556346 0.000000 
0.585938 0.681429 0.000000 
0.195312 0.807131 0.000000 
0.195312 0.933365 0.000000 
0.585938 0.807131 0.000000 
0.585938 0.933365 0.000000 
0.195312 1.060082 0.000000 
0.195312 1.187360 0.000000 
0.585938 1.060082 0.000000 
0.585938 1.187360 0.000000 
0.195312 1.315209 0.000000 
0.195312 1.443669 0.000000 
0.585938 1.315209 0.000000 
0.585938 1.443669 0.000000 
0.195312 1.572739 0.000000 
0.195312 1.702409 0.000000 
0.585938 1.572739 0.000000 
0.585938 1.702409 0.000000 
0.195312 1.832619 0.000000 
0.195312 1.963428 0.000000 
0.585938 1.832619 0.000000 
0.585938 1.963428 0.000000 
0.195312 2.094839 0.000000 
0.195312 2.226880 0.000000 
0.585938 2.094839 0.000000 
0.585938 2.226880 0.000000 
0.195312 2.359560 0.000000 
0.195312 2.492851 0.000000 
0.585938 2.359560 0.000000 
0.585938 2.492851 0.000000 
0.195312 2.626780 0.000000 
0.195312 2.761351 0.000000 
0.585938 2.626780 0.000000 
0.585938 2.761351 0.000000 
0.195312 2.896589 0.000000 
0.195312 3.032485 0.000000 
0.585938 2.896589 0.000000 
0.585938 3.032485 0.000000 
0.195312 3.169071 0.000000 
0.195312 3.306300 0.000000 
0.585938 3.169071 0.000000 
0.585938 3.306300 0.000000 
0.195312 3.444215 0.000000 
0.195312 3.582777 0.000000 
0.585938 3.444215 0.000000 
0.585938 3.582777 0.000000 
0.195312 3.722088 0.000000 
0.195312 3.862132 0.000000 
0.585938 3.722088 0.000000 
0.585938 3.862132 0.000000 
0.195312 4.002901 0.000000 
0.195312 4.144392 0.000000 
0.585938 4.002901 0.000000 
0.585938 4.144392 0.000000 
0.195312 4.286613 0.000000 
0.195312 4.429622 0.000000 
0.585938 4.286613 0.000000 
0.585938 4.429622 0.000000 
0.195312 4.573320 0.000000 
0.195312 4.717866 0.000000 
0.585938 4.573320 0.000000 
0.585938 4.717866 0.000000 
0.195312 4.863139 0.000000 
0.195312 5.009229 0.000000 
0.585938 4.863139 0.000000 
0.585938 5.009229 0.000000 
0.195312 5.156083 0.000000 
0.195312 5.303766 0.000000 
0.585938 5.156083 0.000000 
0.585938 5.303766 0.000000 
0.195312 5.452328 0.000000 
0.195312 5.601611 0.000000 
0.585938 5.452328 0.000000 
0.585938 5.601611 0.000000 
0.195312 5.751825 0.000000 
0.195312 5.902800 0.000000 
0.585938 5.751825 0.000000 
0.585938 5.902800 0.000000 
0.195312 6.054761 0.000000 
0.195312 6.207571 0.000000 
0.585938 6.054761 0.000000 
0.585938 6.207571 0.000000 
0.195312 6.361318 0.000000 
0.195312 6.515940 0.000000 
0.585938 6.361318 0.000000 
0.585938 6.515940 0.000000 
0.195312 6.671448 0.000000 
0.195312 6.827964 0.000000 
0.585938 6.671448 0.000000 
0.585938 6.827964 0.000000 
0.195312 6.985386 0.000000 
0.195312 7.143782 0.000000 
0.585938 6.985386 0.000000 
0.585938 7.143782 0.000000 
0.195312 7.303233 0.000000 
0.195312 7.463560 0.000000 
0.585938 7.303233 0.000000 
0.585938 7.463560 0.000000 
0.195312 7.625038 0.000000 
0.195312 7.787485 0.000000 
0.585938 7.625038 0.000000 
0.585938 7.787485 0.000000 
0.195312 7.950964 0.000000 
0.195312 8.115473 0.000000 
0.585938 7.950964 0.000000 
0.585938 8.115473 0.000000 
0.195312 8.281073 0.000000 
0.195312 8.447764 0.000000 
0.585938 8.281073 0.000000 
0.585938 8.447764 0.000000 
0.195312 8.615649 0.000000 
0.195312 8.784703 0.000000 
0.585938 8.615649 0.000000 
0.585938 8.784703 0.000000 
0.195312 8.954796 0.000000 
0.195312 9.126123 0.000000 
0.585938 8.954796 0.000000 
0.585938 9.126123 0.000000 
0.195312 9.298729 0.000000 
0.195312 9.472430 0.000000 
0.585938 9.298729 0.000000 
0.585938 9.472430 0.000000 
0.195312 9.647467 0.000000 
0.195312 9.823693 0.000000 
0.585938 9.647467 0.000000 
0.585938 9.823693 0.000000 
0.195312 10.001202 0.000000 
0.195312 10.180218 0.000000 
0.585938 10.001202 0.000000 
0.585938 10.180218 0.000000 
0.195312 10.360409 0.000000 
0.195312 10.542067 0.000000 
0.585938 10.360409 0.000000 
0.585938 10.542067 0.000000 
0.195312 10.725032 0.000000 
0.195312 10.909441 0.000000 
0.585938 10.725032 0.000000 
0.585938 10.909441 0.000000 
0.195312 11.095286 0.000000 
0.195312 11.282642 0.000000 
0.585938 11.095286 0.000000 
0.585938 11.282642 0.000000 
0.195312 11.471554 0.000000 
0.195312 11.662070 0.000000 
0.585938 11.471554 0.000000 
0.585938 11.662070 0.000000 
0.195312 11.854043 0.000000 
0.195312 12.047678 0.000000 
0.585938 11.854043 0.000000 
0.585938 12.047678 0.000000 
0.195312 12.242876 0.000000 
0.195312 12.439816 0.000000 
0.585938 12.242876 0.000000 
0.585938 12.439816 0.000000 
0.195312 12.638362 0.000000 
0.195312 12.838716 0.000000 
0.585938 12.638362 0.000000 
0.585938 12.838716 0.000000 
0.195312 13.040993 0.000000 
0.195312 13.244970 0.000000 
0.585938 13.040993 0.000000 
0.585938 13.244970 0.000000 
0.195312 13.451015 0.000000 
0.195312 13.658806 0.000000 
0.585938 13.451015 0.000000 
0.585938 13.658806 0.000000 
0.195312 13.868634 0.000000 
0.195312 14.080468 0.000000 
0.585938 13.868634 0.000000 
0.585938 14.080468 0.000000 
0.195312 14.294586 0.000000 
0.195312 14.510781 0.000000 
0.585938 14.294586 0.000000 
0.585938 14.510781 0.000000 
0.195312 14.729138 0.000000 
0.195312 14.949728 0.000000 
0.585938 14.729138 0.000000 
0.585938 14.949728 0.000000 
0.195312 15.172698 0.000000 
0.195312 15.397879 0.000000 
0.585938 15.172698 0.000000 
0.585938 15.397879 0.000000 
0.195312 15.625821 0.000000 
0.195312 15.856173 0.000000 
0.585938 15.625821 0.000000 
0.585938 15.856173 0.000000 
0.195312 16.089200 0.000000 
0.195312 16.324666 0.000000 
0.585938 16.089200 0.000000 
0.585938 16.324666 0.000000 
0.195312 16.562968 0.000000 
0.195312 16.804267 0.000000 
0.585938 16.562968 0.000000 
0.585938 16.804267 0.000000 
0.195312 17.048357 0.000000 
0.195312 17.295651 0.000000 
0.585938 17.048357 0.000000 
0.585938 17.295651 0.000000 
0.195312 17.545934 0.000000 
0.195312 17.799687 0.000000 
0.585938 17.545934 0.000000 
0.585938 17.799687 0.000000 
0.195312 18.056624 0.000000 
0.195312 18.317151 0.000000 
0.585938 18.056624 0.000000 
0.585938 18.317151 0.000000 
0.195312 18.581507 0.000000 
0.195312 18.849484 0.000000 
0.585938 18.581507 0.000000 
0.585938 18.849484 0.000000 
0.195312 19.121547 0.000000 
0.195312 19.397459 0.000000 
0.585938 19.121547 0.000000 
0.585938 19.397459 0.000000 
0.195312 19.677903 0.000000 
0.195312 19.962748 0.000000 
0.585938 19.677903 0.000000 
0.585938 19.962748 0.000000 
0.195312 20.252316 0.000000 
0.195312 20.546443 0.000000 
0.585938 20.252316 0.000000 
0.585938 20.546443 0.000000 
0.195312 20.845419 0.000000 
0.195312 21.150418 0.000000 
0.585938 20.845419 0.000000 
0.585938 21.150418 0.000000 
0.195312 21.461058 0.000000 
0.195312 21.777812 0.000000 
0.585938 21.461058 0.000000 
0.585938 21.777812 0.000000 
0.195312 22.099674 0.000000 
0.195312 22.429404 0.000000 
0.585938 22.099674 0.000000 
0.585938 22.429404 0.000000 
0.195312 22.766299 0.000000 
0.195312 23.110341 0.000000 
0.585938 22.766299 0.000000 
0.585938 23.110341 0.000000 
0.195312 23.460747 0.000000 
0.195312 23.822929 0.000000 
0.585938 23.460747 0.000000 
0.585938 23.822929 0.000000 
0.195312 24.191103 0.000000 
0.195312 24.562269 0.000000 
0.585938 24.191103 0.000000 
0.585938 24.562269 0.000000 

POINT_DATA 256
SCALARS sigma_xx FLOAT 1
LOOKUP_TABLE default
0.000000
0.000000
0.000000
0.000000
-0.000000
-0.000000
-0.000000
-0.000000
-0.000000
-0.000000
-0.000000
-0.000000
-0.000000
0.000000
-0.000000
-0.000000
-0.000000
-0.000000
-0.000000
-0.000000
-0.000000
-0.000000
-0.000000
-0.000000
-0.000000
0.000000
-0.000000
0.000000
0.000000
0.000000
0.000000
0.000000
-0.000000
-0.000000
-0.000000
-0.000000
-0.000000
-0.000000
-0.000000
-0.000000
-0.000000
-0.000000
-0.000000
-0.000000
-0.000000
-0.000000
-0.000000
-0.000000
-0.000000
-0.000000
-0.000000
-0.000000
-0.000000
-0.000000
-0.000000
-0.000000
-0.000000
-0.000000
-0.000000
-0.000000
0.000000
-0.000000
0.000000
-0.000000
-0.000000
-0.000000
-0.000000
-0.000000
-0.000000
-0.000000
-0.000000
-0.000000
-0.000000
-0.000000
-0.000000
-0.000000
-0.000000
-0.000000
-0.000000
-0.000000
0.000000
-0.000000
0.000000
-0.000000
-0.000000
-0.000000
-0.000000
-0.000000
0.000000
-0.000000
-0.000000
-0.000000
-0.000000
-0.000000
-0.000000
0.000000
0.000000
-0.000000
-0.000000
-0.000000
-0.000000
-0.000000
-0.000000
-0.000000
-0.000000
-0.000000
-0.000000
-0.000000
-0.000000
-0.000000
-0.000000
-0.000000
-0.000000
-0.000000
-0.000000
0.000000
-0.000000
-0.000000
-0.000000
-0.000000
-0.000000
-0.000000
-0.000000
-0.000000
-0.000000
-0.000000
-0.000000
-0.000000
-0.000000
-0.000000
-0.000000
-0.000000
-0.000000
-0.000000
-0.000000
-0.000000
-0.000000
-0.000000
-0.000000
-0.000000
-0.000000
-0.000000
-0.000000
-0.000000
0.000000
0.000000
-0.000000
0.000000
-0.000000
-0.000000
-0.000000
-0.000000
0.000000
-0.000000
0.000000
-0.000000
-0.000000
-0.000000
-0.000000
-0.000000
-0.000000
0.000000
0.000000
0.000000
-0.000000
-0.000000
-0.000000
-0.000000
-0.000000
0.000000
-0.000000
0.000000
-0.000000
-0.000000
-0.000000
-0.000000
-0.000000
-0.000000
-0.000000
-0.000000
-0.000000
-0.000000
-0.000000
-0.000000
-0.000000
-0.000000
-0.000000
-0.000000
-0.000000
-0.000000
-0.000000
-0.000000
-0.000000
-0.000000
-0.000000
-0.000000
-0.000000
-0.000000
-0.000000
-0.000000
-0.000000
-0.000000
-0.000000
-0.000000
-0.000000
-0.000000
-0.000000
-0.000000
-0.000000
-0.000000
-0.000000
-0.000000
-0.000000
-0.000000
-0.000000
0.000000
-0.000000
0.000000
-0.000000
0.000000
-0.000000
0.000000
-0.000000
-0.000000
0.000000
0.000000
0.000000
0.000000
-0.000000
-0.000000
-0.000000
-0.000000
0.000000
-0.000000
0.000000
-0.000000
0.000000
0.000000
0.000000
0.000000
-0.000000
-0.000000
-0.000000
-0.000000
-0.000000
-0.000000
-0.000000
-0.000000
-0.000000
0.000000
-0.000000
0.000000
-0.000000
0.000000
-0.000000
0.000000

SCALARS sigma_yy FLOAT 1
LOOKUP_TABLE default
-36615.796543
-36615.796543
-36615.796543
-36615.796543
-36368.073146
-36081.879653
-36368.073146
-36081.879653
-35728.944646
-35408.825817
-35728.944646
-35408.825817
-35067.480491
-34845.331200
-35067.480491
-34845.331200
-34554.673555
-34280.235993
-34554.673555
-34280.235993
-33964.797851
-33678.615047
-33964.797851
-33678.615047
-33352.560032
-33098.230355
-33352.560032
-33098.230355
-32807.632918
-32534.391698
-32807.632918
-32534.391698
-32220.903466
-31950.822046
-32220.903466
-31950.822046
-31636.202463
-31384.204761
-31636.202463
-31384.204761
-31069.163192
-30795.309578
-31069.163192
-30795.309578
-30474.579178
-30217.967880
-30474.579178
-30217.967880
-29905.485170
-29648.434199
-29905.485170
-29648.434199
-29337.966394
-29074.868982
-29337.966394
-29074.868982
-28750.544492
-28479.249782
-28750.544492
-28479.249782
-28158.229915
-27906.349694
-28158.229915
-27906.349694
-27602.601046
-27307.860976
-27602.601046
-27307.860976
-27022.974434
-26742.746422
-27022.974434
-26742.746422
-26446.806581
-26159.767813
-26446.806581
-26159.767813
-25872.516098
-25586.089124
-25872.516098
-25586.089124
-25273.362456
-25026.813390
-25273.362456
-25026.813390
-24718.839913
-24445.426257
-24718.839913
-24445.426257
-24111.105134
-23853.729460
-24111.105134
-23853.729460
-23539.823822
-23281.616359
-23539.823822
-23281.616359
-22982.401399
-22689.422282
-22982.401399
-22689.422282
-22401.984292
-22111.596998
-22401.984292
-22111.596998
-21812.226361
-21546.548860
-21812.226361
-21546.548860
-21231.290324
-20962.929957
-21231.290324
-20962.929957
-20666.848810
-20395.462726
-20666.848810
-20395.462726
-20089.074258
-19810.926195
-20089.074258
-19810.926195
-19492.048055
-19231.057489
-19492.048055
-19231.057489
-18930.629986
-18655.735521
-18930.629986
-18655.735521
-18335.924989
-18091.377338
-18335.924989
-18091.377338
-17762.717999
-17507.188833
-17762.717999
-17507.188833
-17180.494084
-16911.202875
-17180.494084
-16911.202875
-16614.538745
-16333.085721
-16614.538745
-16333.085721
-16041.325943
-15757.266356
-16041.325943
-15757.266356
-15465.963166
-15181.453282
-15465.963166
-15181.453282
-14861.633639
-14585.819344
-14861.633639
-14585.819344
-14314.305127
-14009.704345
-14314.305127
-14009.704345
-13745.140588
-13446.599225
-13745.140588
-13446.599225
-13166.043450
-12863.181724
-13166.043450
-12863.181724
-12578.603171
-12278.052394
-12578.603171
-12278.052394
-11998.541606
-11718.901006
-11998.541606
-11718.901006
-11423.072167
-11125.430873
-11423.072167
-11125.430873
-10835.080393
-10541.313101
-10835.080393
-10541.313101
-10268.458753
-9971.462621
-10268.458753
-9971.462621
-9686.537975
-9400.114127
-9686.537975
-9400.114127
-9081.712970
-8820.560613
-9081.712970
-8820.560613
-8516.875307
-8258.753462
-8516.875307
-8258.753462
-7941.068101
-7666.655687
-7941.068101
-7666.655687
-7371.947616
-7086.831131
-7371.947616
-7086.831131
-6800.204860
-6499.841506
-6800.204860
-6499.841506
-6216.845508
-5926.684608
-6216.845508
-5926.684608
-5629.506607
-5347.275114
-5629.506607
-5347.275114
-5049.325193
-4778.674640
-5049.325193
-4778.674640
-4468.325844
-4189.807853
-4468.325844
-4189.807853
-3897.037309
-3641.973301
-3897.037309
-3641.973301
-3323.155896
-3032.835194
-3323.155896
-3032.835194
-2722.628598
-2478.251060
-2722.628598
-2478.251060
-2187.938638
-1855.894143
-2187.938638
-1855.894143
-1569.032561
-1337.040774
-1569.032561
-1337.040774
-1038.363121
-668.817801
-1038.363121
-668.817801
-567.055280
-3.432315
-567.055280
-3.432315

SCALARS sigma_zz FLOAT 1
LOOKUP_TABLE default
0.000000
0.000000
0.000000
0.000000
0.000000
0.000000
0.000000
0.000000
0.000000
0.000000
0.000000
0.000000
0.000000
0.000000
0.000000
0.000000
0.000000
0.000000
0.000000
0.000000
0.000000
0.000000
0.000000
0.000000
0.000000
0.000000
0.000000
0.000000
0.000000
0.000000
0.000000
0.000000
0.000000
0.000000
0.000000
0.000000
0.000000
0.000000
0.000000
0.000000
0.000000
0.000000
0.000000
0.000000
0.000000
0.000000
0.000000
0.000000
0.000000
0.000000
0.000000
0.000000
0.000000
0.000000
0.000000
0.000000
0.000000
0.000000
0.000000
0.000000
0.000000
0.000000
0.000000
0.000000
0.000000
0.000000
0.000000
0.000000
0.000000
0.000000
0.000000
0.000000
0.000000
0.000000
0.000000
0.000000
0.000000
0.000000
0.000000
0.000000
0.000000
0.000000
0.000000
0.000000
0.000000
0.000000
0.000000
0.000000
0.000000
0.000000
0.000000
0.000000
0.000000
0.000000
0.000000
0.000000
0.000000
0.000000
0.000000
0.000000
0.000000
0.000000
0.000000
0.000000
0.000000
0.000000
0.000000
0.000000
0.000000
0.000000
0.000000
0.000000
0.000000
0.000000
0.000000
0.000000
0.000000
0.000000
0.000000
0.000000
0.000000
0.000000
0.000000
0.000000
0.000000
0.000000
0.000000
0.000000
0.000000
0.000000
0.000000
0.000000
0.000000
0.000000
0.000000
0.000000
0.000000
0.000000
0.000000
0.000000
0.000000
0.000000
0.000000
0.000000
0.000000
0.000000
0.000000
0.000000
0.000000
0.000000
0.000000
0.000000
0.000000
0.000000
0.000000
0.000000
0.000000
0.000000
0.000000
0.000000
0.000000
0.000000
0.000000
0.000000
0.000000
0.000000
0.000000
0.000000
0.000000
0.000000
0.000000
0.000000
0.000000
0.000000
0.000000
0.000000
0.000000
0.000000
0.000000
0.000000
0.000000
0.000000
0.000000
0.000000
0.000000
0.000000
0.000000
0.000000
0.000000
0.000000
0.000000
0.000000
0.000000
0.000000
0.000000
0.000000
0.000000
0.000000
0.000000
0.000000
0.000000
0.000000
0.000000
0.000000
0.000000
0.000000
0.000000
0.000000
0.000000
0.000000
0.000000
0.000000
0.000000
0.000000
0.000000
0.000000
0.000000
0.000000
0.000000
0.000000
0.000000
0.000000
0.000000
0.000000
0.000000
0.000000
0.000000
0.000000
0.000000
0.000000
0.000000
0.000000
0.000000
0.000000
0.000000
0.000000
0.000000
0.000000
0.000000
0.000000
0.000000
0.000000
0.000000
0.000000
0.000000
0.000000
0.000000
0.000000
0.000000
0.000000
0.000000
0.000000
0.000000
0.000000
0.000000
0.000000

SCALARS sigma_xy FLOAT 1
LOOKUP_TABLE default
0.000000
0.000000
0.000000
0.000000
-0.000000
-0.000000
-0.000000
-0.000000
-0.000000
-0.000000
-0.000000
-0.000000
-0.000000
0.000000
-0.000000
-0.000000
0.000000
0.000000
0.000000
0.000000
0.000000
0.000000
0.000000
0.000000
0.000000
0.000000
0.000000
0.000000
0.000000
0.000000
0.000000
0.000000
-0.000000
-0.000000
-0.000000
-0.000000
-0.000000
-0.000000
-0.000000
-0.000000
0.000000
0.000000
0.000000
0.000000
0.000000
0.000000
0.000000
0.000000
-0.000000
-0.000000
-0.000000
-0.000000
-0.000000
-0.000000
-0.000000
-0.000000
-0.000000
-0.000000
-0.000000
-0.000000
0.000000
-0.000000
0.000000
-0.000000
0.000000
0.000000
0.000000
0.000000
0.000000
0.000000
0.000000
0.000000
0.000000
0.000000
0.000000
0.000000
-0.000000
-0.000000
-0.000000
-0.000000
0.000000
-0.000000
0.000000
-0.000000
0.000000
0.000000
0.000000
0.000000
0.000000
-0.000000
0.000000
-0.000000
-0.000000
-0.000000
-0.000000
0.000000
0.000000
0.000000
0.000000
0.000000
0.000000
0.000000
0.000000
0.000000
-0.000000
-0.000000
-0.000000
-0.000000
-0.000000
-0.000000
-0.000000
-0.000000
0.000000
0.000000
0.000000
0.000000
0.000000
0.000000
0.000000
0.000000
0.000000
0.000000
0.000000
0.000000
-0.000000
-0.000000
-0.000000
-0.000000
-0.000000
-0.000000
-0.000000
-0.000000
0.000000
-0.000000
0.000000
-0.000000
-0.000000
-0.000000
-0.000000
-0.000000
-0.000000
0.000000
-0.000000
0.000000
0.000000
0.000000
-0.000000
0.000000
0.000000
0.000000
0.000000
0.000000
0.000000
-0.000000
0.000000
-0.000000
-0.000000
-0.000000
-0.000000
-0.000000
0.000000
0.000000
0.000000
0.000000
0.000000
0.000000
0.000000
0.000000
-0.000000
0.000000
-0.000000
0.000000
-0.000000
0.000000
-0.000000
0.000000
-0.000000
-0.000000
-0.000000
-0.000000
0.000000
0.000000
0.000000
0.000000
0.000000
-0.000000
0.000000
-0.000000
0.000000
-0.000000
0.000000
-0.000000
-0.000000
-0.000000
-0.000000
-0.000000
0.000000
0.000000
0.000000
0.000000
0.000000
-0.000000
0.000000
-0.000000
-0.000000
-0.000000
-0.000000
-0.000000
0.000000
0.000000
0.000000
0.000000
0.000000
-0.000000
0.000000
0.000000
-0.000000
0.000000
-0.000000
0.000000
-0.000000
0.000000
-0.000000
0.000000
0.000000
0.000000
0.000000
0.000000
-0.000000
-0.000000
-0.000000
-0.000000
0.000000
-0.000000
0.000000
-0.000000
0.000000
0.000000
0.000000
0.000000
0.000000
0.000000
0.000000
0.000000
-0.000000
-0.000000
-0.000000
-0.000000
-0.000000
0.000000
-0.000000
0.000000
-0.000000
0.000000
-0.000000
0.000000

SCALARS sigma_yz FLOAT 1
LOOKUP_TABLE default
0.000000
0.000000
0.000000
0.000000
0.000000
0.000000
0.000000
0.000000
0.000000
0.000000
0.000000
0.000000
0.000000
0.000000
0.000000
0.000000
0.000000
0.000000
0.000000
0.000000
0.000000
0.000000
0.000000
0.000000
0.000000
0.000000
0.000000
0.000000
0.000000
0.000000
0.000000
0.000000
0.000000
0.000000
0.000000
0.000000
0.000000
0.000000
0.000000
0.000000
0.000000
0.000000
0.000000
0.000000
0.000000
0.000000
0.000000
0.000000
0.000000
0.000000
0.000000
0.000000
0.000000
0.000000
0.000000
0.000000
0.000000
0.000000
0.000000
0.000000
0.000000
0.000000
0.000000
0.000000
0.000000
0.000000
0.000000
0.000000
0.000000
0.000000
0.000000
0.000000
0.000000
0.000000
0.000000
0.000000
0.000000
0.000000
0.000000
0.000000
0.000000
0.000000
0.000000
0.000000
0.000000
0.000000
0.000000
0.000000
0.000000
0.000000
0.000000
0.000000
0.000000
0.000000
0.000000
0.000000
0.000000
0.000000
0.000000
0.000000
0.000000
0.000000
0.000000
0.000000
0.000000
0.000000
0.000000
0.000000
0.000000
0.000000
0.000000
0.000000
0.000000
0.000000
0.000000
0.000000
0.000000
0.000000
0.000000
0.000000
0.000000
0.000000
0.000000
0.000000
0.000000
0.000000
0.000000
0.000000
0.000000
0.000000
0.000000
0.000000
0.000000
0.000000
0.000000
0.000000
0.000000
0.000000
0.000000
0.000000
0.000000
0.000000
0.000000
0.000000
0.000000
0.000000
0.000000
0.000000
0.000000
0.000000
0.000000
0.000000
0.000000
0.000000
0.000000
0.000000
0.000000
0.000000
0.000000
0.000000
0.000000
0.000000
0.000000
0.000000
0.000000
0.000000
0.000000
0.000000
0.000000
0.000000
0.000000
0.000000
0.000000
0.000000
0.000000
0.000000
0.000000
0.000000
0.000000
0.000000
0.000000
0.000000
0.000000
0.000000
0.000000
0.000000
0.000000
0.000000
0.000000
0.000000
0.000000
0.000000
0.000000
0.000000
0.000000
0.000000
0.000000
0.000000
0.000000
0.000000
0.000000
0.000000
0.000000
0.000000
0.000000
0.000000
0.000000
0.000000
0.000000
0.000000
0.000000
0.000000
0.000000
0.000000
0.000000
0.000000
0.000000
0.000000
0.000000
0.000000
0.000000
0.000000
0.000000
0.000000
0.000000
0.000000
0.000000
0.000000
0.000000
0.000000
0.000000
0.000000
0.000000
0.000000
0.000000
0.000000
0.000000
0.000000
0.000000
0.000000
0.000000
0.000000
0.000000
0.000000
0.000000
0.000000
0.000000
0.000000
0.000000
0.000000
0.000000
0.000000
0.000000
0.000000
0.000000
0.000000

SCALARS sigma_zx FLOAT 1
LOOKUP_TABLE default
0.000000
0.000000
0.000000
0.000000
0.000000
0.000000
0.000000
0.000000
0.000000
0.000000
0.000000
0.000000
0.000000
0.000000
0.000000
0.000000
0.000000
0.000000
0.000000
0.000000
0.000000
0.000000
0.000000
0.000000
0.000000
0.000000
0.000000
0.000000
0.000000
0.000000
0.000000
0.000000
0.000000
0.000000
0.000000
0.000000
0.000000
0.000000
0.000000
0.000000
0.000000
0.000000
0.000000
0.000000
0.000000
0.000000
0.000000
0.000000
0.000000
0.000000
0.000000
0.000000
0.000000
0.000000
0.000000
0.000000
0.000000
0.000000
0.000000
0.000000
0.000000
0.000000
0.000000
0.000000
0.000000
0.000000
0.000000
0.000000
0.000000
0.000000
0.000000
0.000000
0.000000
0.000000
0.000000
0.000000
0.000000
0.000000
0.000000
0.000000
0.000000
0.000000
0.000000
0.000000
0.000000
0.000000
0.000000
0.000000
0.000000
0.000000
0.000000
0.000000
0.000000
0.000000
0.000000
0.000000
0.000000
0.000000
0.000000
0.000000
0.000000
0.000000
0.000000
0.000000
0.000000
0.000000
0.000000
0.000000
0.000000
0.000000
0.000000
0.000000
0.000000
0.000000
0.000000
0.000000
0.000000
0.000000
0.000000
0.000000
0.000000
0.000000
0.000000
0.000000
0.000000
0.000000
0.000000
0.000000
0.000000
0.000000
0.000000
0.000000
0.000000
0.000000
0.000000
0.000000
0.000000
0.000000
0.000000
0.000000
0.000000
0.000000
0.000000
0.000000
0.000000
0.000000
0.000000
0.000000
0.000000
0.000000
0.000000
0.000000
0.000000
0.000000
0.000000
0.000000
0.000000
0.000000
0.000000
0.000000
0.000000
0.000000
0.000000
0.000000
0.000000
0.000000
0.000000
0.000000
0.000000
0.000000
0.000000
0.000000
0.000000
0.000000
0.000000
0.000000
0.000000
0.000000
0.000000
0.000000
0.000000
0.000000
0.000000
0.000000
0.000000
0.000000
0.000000
0.000000
0.000000
0.000000
0.000000
0.000000
0.000000
0.000000
0.000000
0.000000
0.000000
0.000000
0.000000
0.000000
0.000000
0.000000
0.000000
0.000000
0.000000
0.000000
0.000000
0.000000
0.000000
0.000000
0.000000
0.000000
0.000000
0.000000
0.000000
0.000000
0.000000
0.000000
0.000000
0.000000
0.000000
0.000000
0.000000
0.000000
0.000000
0.000000
0.000000
0.000000
0.000000
0.000000
0.000000
0.000000
0.000000
0.000000
0.000000
0.000000
0.000000
0.000000
0.000000
0.000000
0.000000
0.000000
0.000000
0.000000
0.000000
0.000000
0.000000
0.000000
0.000000
0.000000
0.000000
0.000000
0.000000
0.000000
0.000000
0.000000

SCALARS u_x FLOAT 1
LOOKUP_TABLE default
0.000000
0.000000
0.000000
0.000000
0.000000
0.000000
0.000000
0.000000
0.000000
0.000000
0.000000
0.000000
0.000000
0.000000
0.000000
0.000000
0.000000
0.000000
0.000000
0.000000
0.000000
0.000000
0.000000
0.000000
0.000000
0.000000
0.000000
0.000000
0.000000
0.000000
0.000000
0.000000
0.000000
0.000000
0.000000
0.000000
0.000000
0.000000
0.000000
0.000000
0.000000
0.000000
0.000000
0.000000
0.000000
0.000000
0.000000
0.000000
0.000000
0.000000
0.000000
0.000000
0.000000
0.000000
0.000000
0.000000
0.000000
0.000000
0.000000
0.000000
0.000000
0.000000
0.000000
0.000000
0.000000
0.000000
0.000000
0.000000
0.000000
0.000000
0.000000
0.000000
0.000000
0.000000
0.000000
0.000000
0.000000
0.000000
0.000000
0.000000
0.000000
0.000000
0.000000
0.000000
0.000000
0.000000
0.000000
0.000000
0.000000
0.000000
0.000000
0.000000
0.000000
0.000000
0.000000
0.000000
0.000000
0.000000
0.000000
0.000000
0.000000
0.000000
0.000000
0.000000
0.000000
0.000000
0.000000
0.000000
0.000000
0.000000
0.000000
0.000000
0.000000
0.000000
0.000000
0.000000
0.000000
0.000000
0.000000
0.000000
0.000000
0.000000
0.000000
0.000000
0.000000
0.000000
0.000000
0.000000
0.000000
0.000000
0.000000
0.000000
0.000000
0.000000
0.000000
0.000000
0.000000
0.000000
0.000000
0.000000
0.000000
0.000000
0.000000
0.000000
0.000000
0.000000
0.000000
0.000000
0.000000
0.000000
0.000000
0.000000
0.000000
0.000000
0.000000
0.000000
0.000000
0.000000
0.000000
0.000000
0.000000
0.000000
0.000000
0.000000
0.000000
0.000000
0.000000
0.000000
0.000000
0.000000
0.000000
0.000000
0.000000
0.000000
0.000000
0.000000
0.000000
0.000000
0.000000
0.000000
0.000000
0.000000
0.000000
0.000000
0.000000
0.000000
0.000000
0.000000
0.000000
0.000000
0.000000
0.000000
0.000000
0.000000
0.000000
0.000000
0.000000
0.000000
0.000000
0.000000
0.000000
0.000000
0.000000
0.000000
0.000000
0.000000
0.000000
0.000000
0.000000
0.000000
0.000000
0.000000
0.000000
0.000000
0.000000
0.000000
0.000000
0.000000
0.000000
0.000000
0.000000
0.000000
0.000000
0.000000
0.000000
0.000000
0.000000
0.000000
0.000000
0.000000
0.000000
0.000000
0.000000
0.000000
0.000000
0.000000
0.000000
0.000000
0.000000
0.000000
0.000000
0.000000
0.000000
0.000000
0.000000
0.000000
0.000000
0.000000
0.000000
0.000000
0.000000
0.000000
0.000000
0.000000
0.000000
0.000000

SCALARS u_y FLOAT 1
LOOKUP_TABLE default
-0.133738
-0.401214
-0.133738
-0.401214
-0.668521
-0.935267
-0.668521
-0.935267
-1.201466
-1.467008
-1.201466
-1.467008
-1.731932
-1.996322
-1.731932
-1.996322
-2.260231
-2.523577
-2.260231
-2.523577
-2.786353
-3.048518
-2.786353
-3.048518
-3.310073
-3.571028
-3.310073
-3.571028
-3.831444
-4.091259
-3.831444
-4.091259
-4.350473
-4.609058
-4.350473
-4.609058
-4.867003
-5.124337
-4.867003
-5.124337
-5.381032
-5.637086
-5.381032
-5.637086
-5.892473
-6.147202
-5.892473
-6.147202
-6.401241
-6.654637
-6.401241
-6.654637
-6.907347
-7.159410
-6.907347
-7.159410
-7.410724
-7.661305
-7.410724
-7.661305
-7.911162
-8.160295
-7.911162
-8.160295
-8.408700
-8.656316
-8.408700
-8.656316
-8.903243
-9.149322
-8.903243
-9.149322
-9.394674
-9.639208
-9.394674
-9.639208
-9.882980
-10.125921
-9.882980
-10.125921
-10.367985
-10.609327
-10.367985
-10.609327
-10.849738
-11.089387
-10.849738
-11.089387
-11.328051
-11.565867
-11.328051
-11.565867
-11.802745
-12.038748
-11.802745
-12.038748
-12.273864
-12.507973
-12.273864
-12.507973
-12.741177
-12.973406
-12.741177
-12.973406
-13.204579
-13.434878
-13.204579
-13.434878
-13.664025
-13.892203
-13.664025
-13.892203
-14.119349
-14.345465
-14.119349
-14.345465
-14.570489
-14.794424
-14.570489
-14.794424
-15.017164
-15.238735
-15.017164
-15.238735
-15.459266
-15.678564
-15.459266
-15.678564
-15.896583
-16.113508
-15.896583
-16.113508
-16.329096
-16.543494
-16.329096
-16.543494
-16.756611
-16.968220
-16.756611
-16.968220
-17.178654
-17.387621
-17.178654
-17.387621
-17.595281
-17.801497
-17.595281
-17.801497
-18.006277
-18.209546
-18.006277
-18.209546
-18.411258
-18.611367
-18.411258
-18.611367
-18.810020
-19.007010
-18.810020
-19.007010
-19.202437
-19.396122
-19.202437
-19.396122
-19.588200
-19.778472
-19.588200
-19.778472
-19.966819
-20.153467
-19.966819
-20.153467
-20.338047
-20.520882
-20.338047
-20.520882
-20.701678
-20.880469
-20.701678
-20.880469
-21.056977
-21.231407
-21.056977
-21.231407
-21.403674
-21.573709
-21.403674
-21.573709
-21.741365
-21.906808
-21.741365
-21.906808
-22.069492
-22.229765
-22.069492
-22.229765
-22.387363
-22.542521
-22.387363
-22.542521
-22.694845
-22.844171
-22.694845
-22.844171
-22.990705
-23.134036
-22.990705
-23.134036
-23.274379
-23.411250
-23.274379
-23.411250
-23.544939
-23.675036
-23.544939
-23.675036
-23.801306
-23.923953
-23.801306
-23.923953
-24.042515
-24.157228
-24.042515
-24.157228
-24.267409
-24.373189
-24.267409
-24.373189
-24.474246
-24.570745
-24.474246
-24.570745
-24.662394
-24.748020
-24.662394
-24.748020
-24.828005
-24.901875
-24.828005
-24.901875
-24.970639
-25.031534
-24.970639
-25.031534
-25.085263
-25.131847
-25.085263
-25.131847
-25.172066
-25.200509
-25.172066
-25.200509
-25.222960
-25.242418
-25.222960
-25.242418

