# vtk DataFile Version 2.0
MATLAB generated vtk file, WMC
ASCII
DATASET UNSTRUCTURED_GRID
POINTS 256 double
0.195312 0.073811 0.000000 
0.195312 0.221432 0.000000 
0.585938 0.073811 0.000000 
0.585938 0.221432 0.000000 
0.195312 0.369256 0.000000 
0.195312 0.517752 0.000000 
0.585938 0.369256 0.000000 
0.585938 0.517752 0.000000 
0.195312 0.666904 0.000000 
0.195312 0.816816 0.000000 
0.585938 0.666904 0.000000 
0.585938 0.816816 0.000000 
0.195312 0.967275 0.000000 
0.195312 1.118278 0.000000 
0.585938 0.967275 0.000000 
0.585938 1.118278 0.000000 
0.195312 1.269856 0.000000 
0.195312 1.422107 0.000000 
0.585938 1.269856 0.000000 
0.585938 1.422107 0.000000 
0.195312 1.575030 0.000000 
0.195312 1.728580 0.000000 
0.585938 1.575030 0.000000 
0.585938 1.728580 0.000000 
0.195312 1.882702 0.000000 
0.195312 2.037478 0.000000 
0.585938 1.882702 0.000000 
0.585938 2.037478 0.000000 
0.195312 2.192897 0.000000 
0.195312 2.349028 0.000000 
0.585938 2.192897 0.000000 
0.585938 2.349028 0.000000 
0.195312 2.505821 0.000000 
0.195312 2.663256 0.000000 
0.585938 2.505821 0.000000 
0.585938 2.663256 0.000000 
0.195312 2.821360 0.000000 
0.195312 2.980162 0.000000 
0.585938 2.821360 0.000000 
0.585938 2.980162 0.000000 
0.195312 3.139712 0.000000 
0.195312 3.299922 0.000000 
0.585938 3.139712 0.000000 
0.585938 3.299922 0.000000 
0.195312 3.460820 0.000000 
0.195312 3.622392 0.000000 
0.585938 3.460820 0.000000 
0.585938 3.622392 0.000000 
0.195312 3.784712 0.000000 
0.195312 3.947781 0.000000 
0.585938 3.784712 0.000000 
0.585938 3.947781 0.000000 
0.195312 4.111614 0.000000 
0.195312 4.276136 0.000000 
0.585938 4.111614 0.000000 
0.585938 4.276136 0.000000 
0.195312 4.441480 0.000000 
0.195312 4.607612 0.000000 
0.585938 4.441480 0.000000 
0.585938 4.607612 0.000000 
0.195312 4.774528 0.000000 
0.195312 4.942216 0.000000 
0.585938 4.774528 0.000000 
0.585938 4.942216 0.000000 
0.195312 5.110693 0.000000 
0.195312 5.280024 0.000000 
0.585938 5.110693 0.000000 
0.585938 5.280024 0.000000 
0.195312 5.450080 0.000000 
0.195312 5.620998 0.000000 
0.585938 5.450080 0.000000 
0.585938 5.620998 0.000000 
0.195312 5.792710 0.000000 
0.195312 5.965309 0.000000 
0.585938 5.792710 0.000000 
0.585938 5.965309 0.000000 
0.195312 6.138736 0.000000 
0.195312 6.313075 0.000000 
0.585938 6.138736 0.000000 
0.585938 6.313075 0.000000 
0.195312 6.488347 0.000000 
0.195312 6.664381 0.000000 
0.585938 6.488347 0.000000 
0.585938 6.664381 0.000000 
0.195312 6.841453 0.000000 
0.195312 7.019348 0.000000 
0.585938 6.841453 0.000000 
0.585938 7.019348 0.000000 
0.195312 7.198264 0.000000 
0.195312 7.378035 0.000000 
0.585938 7.198264 0.000000 
0.585938 7.378035 0.000000 
0.195312 7.558753 0.000000 
0.195312 7.740456 0.000000 
0.585938 7.558753 0.000000 
0.585938 7.740456 0.000000 
0.195312 7.923106 0.000000 
0.195312 8.106810 0.000000 
0.585938 7.923106 0.000000 
0.585938 8.106810 0.000000 
0.195312 8.291460 0.000000 
0.195312 8.477168 0.000000 
0.585938 8.291460 0.000000 
0.585938 8.477168 0.000000 
0.195312 8.663966 0.000000 
0.195312 8.851693 0.000000 
0.585938 8.663966 0.000000 
0.585938 8.851693 0.000000 
0.195312 9.040595 0.000000 
0.195312 9.230514 0.000000 
0.585938 9.040595 0.000000 
0.585938 9.230514 0.000000 
0.195312 9.421623 0.000000 
0.195312 9.613781 0.000000 
0.585938 9.421623 0.000000 
0.585938 9.613781 0.000000 
0.195312 9.807027 0.000000 
0.195312 10.001421 0.000000 
0.585938 9.807027 0.000000 
0.585938 10.001421 0.000000 
0.195312 10.196976 0.000000 
0.195312 10.393784 0.000000 
0.585938 10.196976 0.000000 
0.585938 10.393784 0.000000 
0.195312 10.591764 0.000000 
0.195312 10.791054 0.000000 
0.585938 10.591764 0.000000 
0.585938 10.791054 0.000000 
0.195312 10.991671 0.000000 
0.195312 11.193336 0.000000 
0.585938 10.991671 0.000000 
0.585938 11.193336 0.000000 
0.195312 11.396365 0.000000 
0.195312 11.600604 0.000000 
0.585938 11.396365 0.000000 
0.585938 11.600604 0.000000 
0.195312 11.806183 0.000000 
0.195312 12.013289 0.000000 
0.585938 11.806183 0.000000 
0.585938 12.013289 0.000000 
0.195312 12.221576 0.000000 
0.195312 12.431425 0.000000 
0.585938 12.221576 0.000000 
0.585938 12.431425 0.000000 
0.195312 12.642537 0.000000 
0.195312 12.855142 0.000000 
0.585938 12.642537 0.000000 
0.585938 12.855142 0.000000 
0.195312 13.069245 0.000000 
0.195312 13.284909 0.000000 
0.585938 13.069245 0.000000 
0.585938 13.284909 0.000000 
0.195312 13.502158 0.000000 
0.195312 13.720938 0.000000 
0.585938 13.502158 0.000000 
0.585938 13.720938 0.000000 
0.195312 13.941142 0.000000 
0.195312 14.163085 0.000000 
0.585938 13.941142 0.000000 
0.585938 14.163085 0.000000 
0.195312 14.386529 0.000000 
0.195312 14.611807 0.000000 
0.585938 14.386529 0.000000 
0.585938 14.611807 0.000000 
0.195312 14.838729 0.000000 
0.195312 15.067433 0.000000 
0.585938 14.838729 0.000000 
0.585938 15.067433 0.000000 
0.195312 15.298121 0.000000 
0.195312 15.530358 0.000000 
0.585938 15.298121 0.000000 
0.585938 15.530358 0.000000 
0.195312 15.764765 0.000000 
0.195312 16.000834 0.000000 
0.585938 15.764765 0.000000 
0.585938 16.000834 0.000000 
0.195312 16.238931 0.000000 
0.195312 16.478903 0.000000 
0.585938 16.238931 0.000000 
0.585938 16.478903 0.000000 
0.195312 16.720993 0.000000 
0.195312 16.965127 0.000000 
0.585938 16.720993 0.000000 
0.585938 16.965127 0.000000 
0.195312 17.211406 0.000000 
0.195312 17.459865 0.000000 
0.585938 17.211406 0.000000 
0.585938 17.459865 0.000000 
0.195312 17.710714 0.000000 
0.195312 17.963523 0.000000 
0.585938 17.710714 0.000000 
0.585938 17.963523 0.000000 
0.195312 18.219125 0.000000 
0.195312 18.476830 0.000000 
0.585938 18.219125 0.000000 
0.585938 18.476830 0.000000 
0.195312 18.737281 0.000000 
0.195312 18.999893 0.000000 
0.585938 18.737281 0.000000 
0.585938 18.999893 0.000000 
0.195312 19.265440 0.000000 
0.195312 19.533774 0.000000 
0.585938 19.265440 0.000000 
0.585938 19.533774 0.000000 
0.195312 19.804400 0.000000 
0.195312 20.078110 0.000000 
0.585938 19.804400 0.000000 
0.585938 20.078110 0.000000 
0.195312 20.354756 0.000000 
0.195312 20.634655 0.000000 
0.585938 20.354756 0.000000 
0.585938 20.634655 0.000000 
0.195312 20.917021 0.000000 
0.195312 21.202651 0.000000 
0.585938 20.917021 0.000000 
0.585938 21.202651 0.000000 
0.195312 21.491934 0.000000 
0.195312 21.784615 0.000000 
0.585938 21.491934 0.000000 
0.585938 21.784615 0.000000 
0.195312 22.080782 0.000000 
0.195312 22.380178 0.000000 
0.585938 22.080782 0.000000 
0.585938 22.380178 0.000000 
0.195312 22.683803 0.000000 
0.195312 22.991358 0.000000 
0.585938 22.683803 0.000000 
0.585938 22.991358 0.000000 
0.195312 23.302850 0.000000 
0.195312 23.618322 0.000000 
0.585938 23.302850 0.000000 
0.585938 23.618322 0.000000 
0.195312 23.938085 0.000000 
0.195312 24.262611 0.000000 
0.585938 23.938085 0.000000 
0.585938 24.262611 0.000000 
0.195312 24.591501 0.000000 
0.195312 24.926200 0.000000 
0.585938 24.591501 0.000000 
0.585938 24.926200 0.000000 
0.195312 25.265409 0.000000 
0.195312 25.610313 0.000000 
0.585938 25.265409 0.000000 
0.585938 25.610313 0.000000 
0.195312 25.960041 0.000000 
0.195312 26.316173 0.000000 
0.585938 25.960041 0.000000 
0.585938 26.316173 0.000000 
0.195312 26.677950 0.000000 
0.195312 27.047432 0.000000 
0.585938 26.677950 0.000000 
0.585938 27.047432 0.000000 
0.195312 27.422154 0.000000 
0.195312 27.803344 0.000000 
0.585938 27.422154 0.000000 
0.585938 27.803344 0.000000 

POINT_DATA 256
SCALARS sigma_xx FLOAT 1
LOOKUP_TABLE default
0.000000
0.000000
0.000000
0.000000
0.000000
-0.000000
0.000000
-0.000000
-0.000000
-0.000000
-0.000000
-0.000000
0.000000
-0.000000
0.000000
-0.000000
-0.000000
-0.000000
-0.000000
-0.000000
-0.000000
-0.000000
-0.000000
-0.000000
0.000000
-0.000000
0.000000
-0.000000
0.000000
-0.000000
0.000000
-0.000000
-0.000000
-0.000000
-0.000000
-0.000000
0.000000
-0.000000
0.000000
-0.000000
0.000000
-0.000000
0.000000
-0.000000
-0.000000
0.000000
-0.000000
-0.000000
-0.000000
-0.000000
-0.000000
-0.000000
0.000000
0.000000
0.000000
-0.000000
-0.000000
-0.000000
-0.000000
-0.000000
-0.000000
-0.000000
-0.000000
-0.000000
-0.000000
-0.000000
-0.000000
-0.000000
-0.000000
-0.000000
-0.000000
-0.000000
-0.000000
-0.000000
-0.000000
-0.000000
-0.000000
-0.000000
-0.000000
-0.000000
0.000000
-0.000000
-0.000000
-0.000000
-0.000000
-0.000000
-0.000000
-0.000000
-0.000000
-0.000000
-0.000000
-0.000000
-0.000000
0.000000
-0.000000
0.000000
-0.000000
-0.000000
-0.000000
-0.000000
-0.000000
-0.000000
-0.000000
-0.000000
0.000000
-0.000000
-0.000000
-0.000000
-0.000000
-0.000000
-0.000000
-0.000000
-0.000000
-0.000000
-0.000000
-0.000000
0.000000
-0.000000
0.000000
-0.000000
-0.000000
-0.000000
-0.000000
-0.000000
-0.000000
-0.000000
-0.000000
-0.000000
-0.000000
-0.000000
-0.000000
-0.000000
-0.000000
-0.000000
-0.000000
-0.000000
-0.000000
-0.000000
-0.000000
-0.000000
-0.000000
-0.000000
-0.000000
-0.000000
-0.000000
-0.000000
-0.000000
-0.000000
-0.000000
-0.000000
-0.000000
-0.000000
-0.000000
-0.000000
-0.000000
-0.000000
-0.000000
-0.000000
-0.000000
-0.000000
-0.000000
-0.000000
-0.000000
-0.000000
-0.000000
-0.000000
-0.000000
-0.000000
-0.000000
-0.000000
-0.000000
-0.000000
-0.000000
-0.000000
-0.000000
-0.000000
-0.000000
-0.000000
-0.000000
-0.000000
-0.000000
-0.000000
-0.000000
-0.000000
-0.000000
-0.000000
-0.000000
-0.000000
-0.000000
-0.000000
-0.000000
-0.000000
-0.000000
-0.000000
-0.000000
-0.000000
-0.000000
-0.000000
-0.000000
-0.000000
-0.000000
-0.000000
-0.000000
-0.000000
-0.000000
-0.000000
-0.000000
-0.000000
-0.000000
-0.000000
-0.000000
-0.000000
-0.000000
-0.000000
-0.000000
-0.000000
-0.000000
0.000000
-0.000000
0.000000
-0.000000
0.000000
-0.000000
-0.000000
-0.000000
-0.000000
-0.000000
-0.000000
-0.000000
-0.000000
-0.000000
-0.000000
-0.000000
-0.000000
-0.000000
0.000000
-0.000000
-0.000000
-0.000000
-0.000000
0.000000
-0.000000
0.000000
-0.000000
-0.000000
0.000000
-0.000000
-0.000000
-0.000000
0.000000
-0.000000
0.000000
-0.000000
-0.000000
-0.000000
-0.000000

SCALARS sigma_yy FLOAT 1
LOOKUP_TABLE default
-25749.464345
-25749.464345
-25749.464345
-25749.464345
-25560.209529
-25341.601230
-25560.209529
-25341.601230
-25072.067401
-24861.646133
-25072.067401
-24861.646133
-24669.920379
-24503.273837
-24669.920379
-24503.273837
-24280.768018
-24070.718510
-24280.768018
-24070.718510
-23842.722216
-23673.027333
-23842.722216
-23673.027333
-23463.000545
-23271.547153
-23463.000545
-23271.547153
-23048.617806
-22844.165012
-23048.617806
-22844.165012
-22633.898122
-22457.391169
-22633.898122
-22457.391169
-22236.114133
-22043.613055
-22236.114133
-22043.613055
-21816.392322
-21640.991894
-21816.392322
-21640.991894
-21424.182676
-21254.677003
-21424.182676
-21254.677003
-21021.751045
-20832.444717
-21021.751045
-20832.444717
-20611.092268
-20430.235046
-20611.092268
-20430.235046
-20198.031971
-20011.977908
-20198.031971
-20011.977908
-19780.272713
-19609.371954
-19780.272713
-19609.371954
-19392.169411
-19186.631544
-19392.169411
-19186.631544
-18995.147293
-18803.257424
-18995.147293
-18803.257424
-18591.102227
-18387.219096
-18591.102227
-18387.219096
-18180.934315
-17975.017651
-18180.934315
-17975.017651
-17762.863662
-17579.932430
-17762.863662
-17579.932430
-17358.461059
-17167.230011
-17358.461059
-17167.230011
-16940.071174
-16773.795506
-16940.071174
-16773.795506
-16551.157395
-16357.371085
-16551.157395
-16357.371085
-16151.251063
-15948.959961
-16151.251063
-15948.959961
-15740.651843
-15538.729768
-15740.651843
-15538.729768
-15328.256375
-15143.765740
-15328.256375
-15143.765740
-14930.949506
-14727.928437
-14930.949506
-14727.928437
-14505.239808
-14333.135067
-14505.239808
-14333.135067
-14114.763258
-13927.986336
-14114.763258
-13927.986336
-13711.117287
-13513.762526
-13711.117287
-13513.762526
-13287.837685
-13096.216772
-13287.837685
-13096.216772
-12875.861796
-12715.189544
-12875.861796
-12715.189544
-12485.004110
-12304.854284
-12485.004110
-12304.854284
-12071.230090
-11893.122266
-12071.230090
-11893.122266
-11675.256009
-11478.715092
-11675.256009
-11478.715092
-11280.689521
-11073.886475
-11280.689521
-11073.886475
-10864.513251
-10662.434540
-10864.513251
-10662.434540
-10439.145958
-10261.468417
-10439.145958
-10261.468417
-10063.429250
-9849.240710
-10063.429250
-9849.240710
-9669.215529
-9438.643271
-9669.215529
-9438.643271
-9250.977549
-9025.640671
-9250.977549
-9025.640671
-8837.348828
-8624.615817
-8837.348828
-8624.615817
-8418.996967
-8232.233690
-8418.996967
-8232.233690
-8018.209928
-7828.749609
-8018.209928
-7828.749609
-7626.982928
-7412.551764
-7626.982928
-7412.551764
-7223.211449
-7002.178694
-7223.211449
-7002.178694
-6807.817089
-6608.974547
-6807.817089
-6608.974547
-6381.620190
-6207.054138
-6381.620190
-6207.054138
-5976.045776
-5808.251299
-5976.045776
-5808.251299
-5555.156729
-5390.636519
-5555.156729
-5390.636519
-5186.771906
-4976.390827
-5186.771906
-4976.390827
-4763.185172
-4566.860719
-4763.185172
-4566.860719
-4384.789840
-4172.917142
-4384.789840
-4172.917142
-3950.683851
-3752.389805
-3950.683851
-3752.389805
-3554.968330
-3370.803307
-3554.968330
-3370.803307
-3126.062606
-2949.296477
-3126.062606
-2949.296477
-2733.205953
-2558.576087
-2733.205953
-2558.576087
-2321.800141
-2153.432835
-2321.800141
-2153.432835
-1916.212130
-1718.839416
-1916.212130
-1718.839416
-1516.585367
-1324.818551
-1516.585367
-1324.818551
-1126.097448
-917.279783
-1126.097448
-917.279783
-718.486209
-500.980719
-718.486209
-500.980719
-326.739374
-60.971322
-326.739374
-60.971322

SCALARS sigma_zz FLOAT 1
LOOKUP_TABLE default
0.000000
0.000000
0.000000
0.000000
0.000000
0.000000
0.000000
0.000000
0.000000
0.000000
0.000000
0.000000
0.000000
0.000000
0.000000
0.000000
0.000000
0.000000
0.000000
0.000000
0.000000
0.000000
0.000000
0.000000
0.000000
0.000000
0.000000
0.000000
0.000000
0.000000
0.000000
0.000000
0.000000
0.000000
0.000000
0.000000
0.000000
0.000000
0.000000
0.000000
0.000000
0.000000
0.000000
0.000000
0.000000
0.000000
0.000000
0.000000
0.000000
0.000000
0.000000
0.000000
0.000000
0.000000
0.000000
0.000000
0.000000
0.000000
0.000000
0.000000
0.000000
0.000000
0.000000
0.000000
0.000000
0.000000
0.000000
0.000000
0.000000
0.000000
0.000000
0.000000
0.000000
0.000000
0.000000
0.000000
0.000000
0.000000
0.000000
0.000000
0.000000
0.000000
0.000000
0.000000
0.000000
0.000000
0.000000
0.000000
0.000000
0.000000
0.000000
0.000000
0.000000
0.000000
0.000000
0.000000
0.000000
0.000000
0.000000
0.000000
0.000000
0.000000
0.000000
0.000000
0.000000
0.000000
0.000000
0.000000
0.000000
0.000000
0.000000
0.000000
0.000000
0.000000
0.000000
0.000000
0.000000
0.000000
0.000000
0.000000
0.000000
0.000000
0.000000
0.000000
0.000000
0.000000
0.000000
0.000000
0.000000
0.000000
0.000000
0.000000
0.000000
0.000000
0.000000
0.000000
0.000000
0.000000
0.000000
0.000000
0.000000
0.000000
0.000000
0.000000
0.000000
0.000000
0.000000
0.000000
0.000000
0.000000
0.000000
0.000000
0.000000
0.000000
0.000000
0.000000
0.000000
0.000000
0.000000
0.000000
0.000000
0.000000
0.000000
0.000000
0.000000
0.000000
0.000000
0.000000
0.000000
0.000000
0.000000
0.000000
0.000000
0.000000
0.000000
0.000000
0.000000
0.000000
0.000000
0.000000
0.000000
0.000000
0.000000
0.000000
0.000000
0.000000
0.000000
0.000000
0.000000
0.000000
0.000000
0.000000
0.000000
0.000000
0.000000
0.000000
0.000000
0.000000
0.000000
0.000000
0.000000
0.000000
0.000000
0.000000
0.000000
0.000000
0.000000
0.000000
0.000000
0.000000
0.000000
0.000000
0.000000
0.000000
0.000000
0.000000
0.000000
0.000000
0.000000
0.000000
0.000000
0.000000
0.000000
0.000000
0.000000
0.000000
0.000000
0.000000
0.000000
0.000000
0.000000
0.000000
0.000000
0.000000
0.000000
0.000000
0.000000
0.000000
0.000000
0.000000
0.000000
0.000000
0.000000
0.000000
0.000000
0.000000
0.000000
0.000000
0.000000
0.000000
0.000000
0.000000
0.000000
0.000000
0.000000
0.000000

SCALARS sigma_xy FLOAT 1
LOOKUP_TABLE default
0.000000
0.000000
0.000000
0.000000
0.000000
-0.000000
0.000000
-0.000000
-0.000000
-0.000000
-0.000000
-0.000000
0.000000
0.000000
0.000000
0.000000
0.000000
0.000000
0.000000
0.000000
-0.000000
-0.000000
-0.000000
-0.000000
0.000000
-0.000000
0.000000
-0.000000
0.000000
0.000000
0.000000
0.000000
0.000000
0.000000
0.000000
0.000000
0.000000
-0.000000
0.000000
-0.000000
0.000000
0.000000
0.000000
0.000000
0.000000
0.000000
0.000000
-0.000000
-0.000000
-0.000000
-0.000000
-0.000000
0.000000
0.000000
0.000000
0.000000
-0.000000
-0.000000
-0.000000
-0.000000
-0.000000
-0.000000
-0.000000
-0.000000
0.000000
-0.000000
0.000000
-0.000000
0.000000
0.000000
0.000000
0.000000
0.000000
0.000000
0.000000
0.000000
-0.000000
-0.000000
-0.000000
-0.000000
0.000000
-0.000000
0.000000
-0.000000
0.000000
0.000000
0.000000
0.000000
-0.000000
-0.000000
-0.000000
-0.000000
-0.000000
0.000000
-0.000000
0.000000
0.000000
0.000000
0.000000
0.000000
0.000000
0.000000
0.000000
0.000000
0.000000
-0.000000
-0.000000
-0.000000
-0.000000
-0.000000
-0.000000
-0.000000
0.000000
-0.000000
0.000000
-0.000000
0.000000
-0.000000
0.000000
-0.000000
-0.000000
0.000000
-0.000000
0.000000
-0.000000
0.000000
-0.000000
0.000000
0.000000
0.000000
0.000000
0.000000
0.000000
-0.000000
0.000000
-0.000000
-0.000000
-0.000000
-0.000000
-0.000000
-0.000000
0.000000
-0.000000
0.000000
0.000000
0.000000
0.000000
0.000000
0.000000
0.000000
0.000000
0.000000
0.000000
-0.000000
0.000000
-0.000000
0.000000
-0.000000
0.000000
-0.000000
-0.000000
-0.000000
-0.000000
-0.000000
-0.000000
0.000000
-0.000000
0.000000
0.000000
-0.000000
0.000000
-0.000000
-0.000000
0.000000
-0.000000
0.000000
0.000000
-0.000000
-0.000000
-0.000000
-0.000000
0.000000
-0.000000
0.000000
0.000000
0.000000
0.000000
0.000000
0.000000
0.000000
0.000000
0.000000
-0.000000
-0.000000
-0.000000
-0.000000
-0.000000
0.000000
-0.000000
0.000000
0.000000
0.000000
0.000000
0.000000
-0.000000
-0.000000
-0.000000
-0.000000
0.000000
0.000000
0.000000
0.000000
0.000000
-0.000000
0.000000
0.000000
-0.000000
0.000000
-0.000000
0.000000
-0.000000
0.000000
-0.000000
0.000000
0.000000
0.000000
0.000000
0.000000
-0.000000
-0.000000
-0.000000
-0.000000
0.000000
-0.000000
0.000000
0.000000
0.000000
0.000000
0.000000
0.000000
0.000000
0.000000
0.000000
0.000000
-0.000000
0.000000
-0.000000
0.000000
0.000000
0.000000
-0.000000
0.000000
-0.000000
-0.000000
-0.000000
-0.000000

SCALARS sigma_yz FLOAT 1
LOOKUP_TABLE default
0.000000
0.000000
0.000000
0.000000
0.000000
0.000000
0.000000
0.000000
0.000000
0.000000
0.000000
0.000000
0.000000
0.000000
0.000000
0.000000
0.000000
0.000000
0.000000
0.000000
0.000000
0.000000
0.000000
0.000000
0.000000
0.000000
0.000000
0.000000
0.000000
0.000000
0.000000
0.000000
0.000000
0.000000
0.000000
0.000000
0.000000
0.000000
0.000000
0.000000
0.000000
0.000000
0.000000
0.000000
0.000000
0.000000
0.000000
0.000000
0.000000
0.000000
0.000000
0.000000
0.000000
0.000000
0.000000
0.000000
0.000000
0.000000
0.000000
0.000000
0.000000
0.000000
0.000000
0.000000
0.000000
0.000000
0.000000
0.000000
0.000000
0.000000
0.000000
0.000000
0.000000
0.000000
0.000000
0.000000
0.000000
0.000000
0.000000
0.000000
0.000000
0.000000
0.000000
0.000000
0.000000
0.000000
0.000000
0.000000
0.000000
0.000000
0.000000
0.000000
0.000000
0.000000
0.000000
0.000000
0.000000
0.000000
0.000000
0.000000
0.000000
0.000000
0.000000
0.000000
0.000000
0.000000
0.000000
0.000000
0.000000
0.000000
0.000000
0.000000
0.000000
0.000000
0.000000
0.000000
0.000000
0.000000
0.000000
0.000000
0.000000
0.000000
0.000000
0.000000
0.000000
0.000000
0.000000
0.000000
0.000000
0.000000
0.000000
0.000000
0.000000
0.000000
0.000000
0.000000
0.000000
0.000000
0.000000
0.000000
0.000000
0.000000
0.000000
0.000000
0.000000
0.000000
0.000000
0.000000
0.000000
0.000000
0.000000
0.000000
0.000000
0.000000
0.000000
0.000000
0.000000
0.000000
0.000000
0.000000
0.000000
0.000000
0.000000
0.000000
0.000000
0.000000
0.000000
0.000000
0.000000
0.000000
0.000000
0.000000
0.000000
0.000000
0.000000
0.000000
0.000000
0.000000
0.000000
0.000000
0.000000
0.000000
0.000000
0.000000
0.000000
0.000000
0.000000
0.000000
0.000000
0.000000
0.000000
0.000000
0.000000
0.000000
0.000000
0.000000
0.000000
0.000000
0.000000
0.000000
0.000000
0.000000
0.000000
0.000000
0.000000
0.000000
0.000000
0.000000
0.000000
0.000000
0.000000
0.000000
0.000000
0.000000
0.000000
0.000000
0.000000
0.000000
0.000000
0.000000
0.000000
0.000000
0.000000
0.000000
0.000000
0.000000
0.000000
0.000000
0.000000
0.000000
0.000000
0.000000
0.000000
0.000000
0.000000
0.000000
0.000000
0.000000
0.000000
0.000000
0.000000
0.000000
0.000000
0.000000
0.000000
0.000000
0.000000
0.000000
0.000000
0.000000
0.000000
0.000000
0.000000
0.000000
0.000000
0.000000

SCALARS sigma_zx FLOAT 1
LOOKUP_TABLE default
0.000000
0.000000
0.000000
0.000000
0.000000
0.000000
0.000000
0.000000
0.000000
0.000000
0.000000
0.000000
0.000000
0.000000
0.000000
0.000000
0.000000
0.000000
0.000000
0.000000
0.000000
0.000000
0.000000
0.000000
0.000000
0.000000
0.000000
0.000000
0.000000
0.000000
0.000000
0.000000
0.000000
0.000000
0.000000
0.000000
0.000000
0.000000
0.000000
0.000000
0.000000
0.000000
0.000000
0.000000
0.000000
0.000000
0.000000
0.000000
0.000000
0.000000
0.000000
0.000000
0.000000
0.000000
0.000000
0.000000
0.000000
0.000000
0.000000
0.000000
0.000000
0.000000
0.000000
0.000000
0.000000
0.000000
0.000000
0.000000
0.000000
0.000000
0.000000
0.000000
0.000000
0.000000
0.000000
0.000000
0.000000
0.000000
0.000000
0.000000
0.000000
0.000000
0.000000
0.000000
0.000000
0.000000
0.000000
0.000000
0.000000
0.000000
0.000000
0.000000
0.000000
0.000000
0.000000
0.000000
0.000000
0.000000
0.000000
0.000000
0.000000
0.000000
0.000000
0.000000
0.000000
0.000000
0.000000
0.000000
0.000000
0.000000
0.000000
0.000000
0.000000
0.000000
0.000000
0.000000
0.000000
0.000000
0.000000
0.000000
0.000000
0.000000
0.000000
0.000000
0.000000
0.000000
0.000000
0.000000
0.000000
0.000000
0.000000
0.000000
0.000000
0.000000
0.000000
0.000000
0.000000
0.000000
0.000000
0.000000
0.000000
0.000000
0.000000
0.000000
0.000000
0.000000
0.000000
0.000000
0.000000
0.000000
0.000000
0.000000
0.000000
0.000000
0.000000
0.000000
0.000000
0.000000
0.000000
0.000000
0.000000
0.000000
0.000000
0.000000
0.000000
0.000000
0.000000
0.000000
0.000000
0.000000
0.000000
0.000000
0.000000
0.000000
0.000000
0.000000
0.000000
0.000000
0.000000
0.000000
0.000000
0.000000
0.000000
0.000000
0.000000
0.000000
0.000000
0.000000
0.000000
0.000000
0.000000
0.000000
0.000000
0.000000
0.000000
0.000000
0.000000
0.000000
0.000000
0.000000
0.000000
0.000000
0.000000
0.000000
0.000000
0.000000
0.000000
0.000000
0.000000
0.000000
0.000000
0.000000
0.000000
0.000000
0.000000
0.000000
0.000000
0.000000
0.000000
0.000000
0.000000
0.000000
0.000000
0.000000
0.000000
0.000000
0.000000
0.000000
0.000000
0.000000
0.000000
0.000000
0.000000
0.000000
0.000000
0.000000
0.000000
0.000000
0.000000
0.000000
0.000000
0.000000
0.000000
0.000000
0.000000
0.000000
0.000000
0.000000
0.000000
0.000000
0.000000
0.000000
0.000000
0.000000
0.000000
0.000000

SCALARS u_x FLOAT 1
LOOKUP_TABLE default
0.000000
0.000000
0.000000
0.000000
0.000000
0.000000
0.000000
0.000000
0.000000
0.000000
0.000000
0.000000
0.000000
0.000000
0.000000
0.000000
0.000000
0.000000
0.000000
0.000000
0.000000
0.000000
0.000000
0.000000
0.000000
0.000000
0.000000
0.000000
0.000000
0.000000
0.000000
0.000000
0.000000
0.000000
0.000000
0.000000
0.000000
0.000000
0.000000
0.000000
0.000000
0.000000
0.000000
0.000000
0.000000
0.000000
0.000000
0.000000
0.000000
0.000000
0.000000
0.000000
0.000000
0.000000
0.000000
0.000000
0.000000
0.000000
0.000000
0.000000
0.000000
0.000000
0.000000
0.000000
0.000000
0.000000
0.000000
0.000000
0.000000
0.000000
0.000000
0.000000
0.000000
0.000000
0.000000
0.000000
0.000000
0.000000
0.000000
0.000000
0.000000
0.000000
0.000000
0.000000
0.000000
0.000000
0.000000
0.000000
0.000000
0.000000
0.000000
0.000000
0.000000
0.000000
0.000000
0.000000
0.000000
0.000000
0.000000
0.000000
0.000000
0.000000
0.000000
0.000000
0.000000
0.000000
0.000000
0.000000
0.000000
0.000000
0.000000
0.000000
0.000000
0.000000
0.000000
0.000000
0.000000
0.000000
0.000000
0.000000
0.000000
0.000000
0.000000
0.000000
0.000000
0.000000
0.000000
0.000000
0.000000
0.000000
0.000000
0.000000
0.000000
0.000000
0.000000
0.000000
0.000000
0.000000
0.000000
0.000000
0.000000
0.000000
0.000000
0.000000
0.000000
0.000000
0.000000
0.000000
0.000000
0.000000
0.000000
0.000000
0.000000
0.000000
0.000000
0.000000
0.000000
0.000000
0.000000
0.000000
0.000000
0.000000
0.000000
0.000000
0.000000
0.000000
0.000000
0.000000
0.000000
0.000000
0.000000
0.000000
0.000000
0.000000
0.000000
0.000000
0.000000
0.000000
0.000000
0.000000
0.000000
0.000000
0.000000
0.000000
0.000000
0.000000
0.000000
0.000000
0.000000
0.000000
0.000000
0.000000
0.000000
0.000000
0.000000
0.000000
0.000000
0.000000
0.000000
0.000000
0.000000
0.000000
0.000000
0.000000
0.000000
0.000000
0.000000
0.000000
0.000000
0.000000
0.000000
0.000000
0.000000
0.000000
0.000000
0.000000
0.000000
0.000000
0.000000
0.000000
0.000000
0.000000
0.000000
0.000000
0.000000
0.000000
0.000000
0.000000
0.000000
0.000000
0.000000
0.000000
0.000000
0.000000
0.000000
0.000000
0.000000
0.000000
0.000000
0.000000
0.000000
0.000000
0.000000
0.000000
0.000000
0.000000
0.000000
0.000000
0.000000
0.000000
0.000000
0.000000
0.000000
0.000000
0.000000
0.000000

SCALARS u_y FLOAT 1
LOOKUP_TABLE default
-0.121502
-0.364506
-0.121502
-0.364506
-0.607306
-0.849436
-0.607306
-0.849436
-1.090909
-1.331622
-1.090909
-1.331622
-1.571787
-1.811410
-1.571787
-1.811410
-2.050456
-2.288831
-2.050456
-2.288831
-2.526532
-2.763608
-2.526532
-2.763608
-3.000111
-3.235960
-3.000111
-3.235960
-3.471165
-3.705659
-3.471165
-3.705659
-3.939491
-4.172681
-3.939491
-4.172681
-4.405203
-4.637025
-4.405203
-4.637025
-4.868101
-5.098516
-4.868101
-5.098516
-5.328243
-5.557296
-5.328243
-5.557296
-5.785600
-6.013156
-5.785600
-6.013156
-6.239948
-6.466051
-6.239948
-6.466051
-6.691332
-6.915825
-6.691332
-6.915825
-7.139534
-7.362471
-7.139534
-7.362471
-7.584620
-7.805914
-7.584620
-7.805914
-8.026483
-8.246190
-8.026483
-8.246190
-8.465102
-8.683128
-8.465102
-8.683128
-8.900326
-9.116613
-8.900326
-9.116613
-9.331966
-9.546557
-9.331966
-9.546557
-9.760110
-9.972839
-9.760110
-9.972839
-10.184549
-10.395403
-10.184549
-10.395403
-10.605309
-10.814232
-10.605309
-10.814232
-11.022207
-11.229128
-11.022207
-11.229128
-11.435102
-11.640019
-11.435102
-11.640019
-11.843847
-12.046744
-11.843847
-12.046744
-12.248468
-12.449174
-12.248468
-12.449174
-12.648689
-12.847157
-12.648689
-12.847157
-13.044536
-13.240767
-13.044536
-13.240767
-13.435836
-13.629654
-13.435836
-13.629654
-13.822299
-14.013634
-13.822299
-14.013634
-14.203641
-14.392601
-14.203641
-14.392601
-14.580197
-14.766583
-14.580197
-14.766583
-14.951629
-15.135148
-14.951629
-15.135148
-15.317487
-15.498263
-15.317487
-15.498263
-15.677775
-15.855795
-15.677775
-15.855795
-16.032317
-16.207278
-16.032317
-16.207278
-16.380655
-16.552499
-16.380655
-16.552499
-16.722920
-16.891603
-16.722920
-16.891603
-17.058784
-17.224130
-17.058784
-17.224130
-17.387833
-17.549755
-17.387833
-17.549755
-17.709692
-17.868079
-17.709692
-17.868079
-18.024297
-18.178854
-18.024297
-18.178854
-18.331381
-18.482034
-18.331381
-18.482034
-18.630569
-18.777061
-18.630569
-18.777061
-18.921407
-19.063572
-18.921407
-19.063572
-19.203349
-19.341164
-19.203349
-19.341164
-19.476187
-19.609108
-19.476187
-19.609108
-19.739282
-19.867294
-19.739282
-19.867294
-19.992372
-20.114664
-19.992372
-20.114664
-20.234662
-20.351578
-20.234662
-20.351578
-20.465556
-20.576283
-20.465556
-20.576283
-20.684542
-20.789537
-20.684542
-20.789537
-20.890879
-20.988823
-20.890879
-20.988823
-21.083281
-21.174510
-21.083281
-21.174510
-21.261509
-21.344579
-21.261509
-21.344579
-21.423713
-21.498865
-21.423713
-21.498865
-21.569727
-21.635827
-21.569727
-21.635827
-21.697561
-21.753488
-21.697561
-21.753488
-21.804904
-21.850625
-21.804904
-21.850625
-21.891521
-21.926014
-21.891521
-21.926014
-21.954863
-21.976005
-21.954863
-21.976005
-21.991908
-22.001343
-21.991908
-22.001343

