# vtk DataFile Version 2.0
MATLAB generated vtk file, WMC
ASCII
DATASET UNSTRUCTURED_GRID
POINTS 256 double
0.195312 0.059038 0.000000 
0.195312 0.177113 0.000000 
0.585938 0.059038 0.000000 
0.585938 0.177113 0.000000 
0.195312 0.295352 0.000000 
0.195312 0.414127 0.000000 
0.585938 0.295352 0.000000 
0.585938 0.414127 0.000000 
0.195312 0.533427 0.000000 
0.195312 0.653357 0.000000 
0.585938 0.533427 0.000000 
0.585938 0.653357 0.000000 
0.195312 0.773893 0.000000 
0.195312 0.894992 0.000000 
0.585938 0.773893 0.000000 
0.585938 0.894992 0.000000 
0.195312 1.016558 0.000000 
0.195312 1.138663 0.000000 
0.585938 1.016558 0.000000 
0.585938 1.138663 0.000000 
0.195312 1.261316 0.000000 
0.195312 1.384555 0.000000 
0.585938 1.261316 0.000000 
0.585938 1.384555 0.000000 
0.195312 1.508384 0.000000 
0.195312 1.632831 0.000000 
0.585938 1.508384 0.000000 
0.585938 1.632831 0.000000 
0.195312 1.757807 0.000000 
0.195312 1.883358 0.000000 
0.585938 1.757807 0.000000 
0.585938 1.883358 0.000000 
0.195312 2.009487 0.000000 
0.195312 2.136221 0.000000 
0.585938 2.009487 0.000000 
0.585938 2.136221 0.000000 
0.195312 2.263574 0.000000 
0.195312 2.391555 0.000000 
0.585938 2.263574 0.000000 
0.585938 2.391555 0.000000 
0.195312 2.520161 0.000000 
0.195312 2.649382 0.000000 
0.585938 2.520161 0.000000 
0.585938 2.649382 0.000000 
0.195312 2.779243 0.000000 
0.195312 2.909737 0.000000 
0.585938 2.779243 0.000000 
0.585938 2.909737 0.000000 
0.195312 3.040907 0.000000 
0.195312 3.172751 0.000000 
0.585938 3.040907 0.000000 
0.585938 3.172751 0.000000 
0.195312 3.305263 0.000000 
0.195312 3.438396 0.000000 
0.585938 3.305263 0.000000 
0.585938 3.438396 0.000000 
0.195312 3.572250 0.000000 
0.195312 3.706807 0.000000 
0.585938 3.572250 0.000000 
0.585938 3.706807 0.000000 
0.195312 3.842068 0.000000 
0.195312 3.978077 0.000000 
0.585938 3.842068 0.000000 
0.585938 3.978077 0.000000 
0.195312 4.114795 0.000000 
0.195312 4.252272 0.000000 
0.585938 4.114795 0.000000 
0.585938 4.252272 0.000000 
0.195312 4.390410 0.000000 
0.195312 4.529375 0.000000 
0.585938 4.390410 0.000000 
0.585938 4.529375 0.000000 
0.195312 4.669087 0.000000 
0.195312 4.809596 0.000000 
0.585938 4.669087 0.000000 
0.585938 4.809596 0.000000 
0.195312 4.950840 0.000000 
0.195312 5.092881 0.000000 
0.585938 4.950840 0.000000 
0.585938 5.092881 0.000000 
0.195312 5.235771 0.000000 
0.195312 5.379401 0.000000 
0.585938 5.235771 0.000000 
0.585938 5.379401 0.000000 
0.195312 5.523972 0.000000 
0.195312 5.669286 0.000000 
0.585938 5.523972 0.000000 
0.585938 5.669286 0.000000 
0.195312 5.815548 0.000000 
0.195312 5.962627 0.000000 
0.585938 5.815548 0.000000 
0.585938 5.962627 0.000000 
0.195312 6.110626 0.000000 
0.195312 6.259536 0.000000 
0.585938 6.110626 0.000000 
0.585938 6.259536 0.000000 
0.195312 6.409317 0.000000 
0.195312 6.560069 0.000000 
0.585938 6.409317 0.000000 
0.585938 6.560069 0.000000 
0.195312 6.711693 0.000000 
0.195312 6.864274 0.000000 
0.585938 6.711693 0.000000 
0.585938 6.864274 0.000000 
0.195312 7.017903 0.000000 
0.195312 7.172380 0.000000 
0.585938 7.017903 0.000000 
0.585938 7.172380 0.000000 
0.195312 7.327966 0.000000 
0.195312 7.484490 0.000000 
0.585938 7.327966 0.000000 
0.585938 7.484490 0.000000 
0.195312 7.642073 0.000000 
0.195312 7.800702 0.000000 
0.585938 7.642073 0.000000 
0.585938 7.800702 0.000000 
0.195312 7.960395 0.000000 
0.195312 8.121138 0.000000 
0.585938 7.960395 0.000000 
0.585938 8.121138 0.000000 
0.195312 8.283038 0.000000 
0.195312 8.446098 0.000000 
0.585938 8.283038 0.000000 
0.585938 8.446098 0.000000 
0.195312 8.610232 0.000000 
0.195312 8.775578 0.000000 
0.585938 8.610232 0.000000 
0.585938 8.775578 0.000000 
0.195312 8.942157 0.000000 
0.195312 9.109809 0.000000 
0.585938 8.942157 0.000000 
0.585938 9.109809 0.000000 
0.195312 9.278828 0.000000 
0.195312 9.449034 0.000000 
0.585938 9.278828 0.000000 
0.585938 9.449034 0.000000 
0.195312 9.620479 0.000000 
0.195312 9.793394 0.000000 
0.585938 9.620479 0.000000 
0.585938 9.793394 0.000000 
0.195312 9.967489 0.000000 
0.195312 10.143053 0.000000 
0.585938 9.967489 0.000000 
0.585938 10.143053 0.000000 
0.195312 10.319911 0.000000 
0.195312 10.498168 0.000000 
0.585938 10.319911 0.000000 
0.585938 10.498168 0.000000 
0.195312 10.677840 0.000000 
0.195312 10.859016 0.000000 
0.585938 10.677840 0.000000 
0.585938 10.859016 0.000000 
0.195312 11.041691 0.000000 
0.195312 11.225917 0.000000 
0.585938 11.041691 0.000000 
0.585938 11.225917 0.000000 
0.195312 11.411626 0.000000 
0.195312 11.599065 0.000000 
0.585938 11.411626 0.000000 
0.585938 11.599065 0.000000 
0.195312 11.788117 0.000000 
0.195312 11.978866 0.000000 
0.585938 11.788117 0.000000 
0.585938 11.978866 0.000000 
0.195312 12.171211 0.000000 
0.195312 12.365353 0.000000 
0.585938 12.171211 0.000000 
0.585938 12.365353 0.000000 
0.195312 12.561402 0.000000 
0.195312 12.759106 0.000000 
0.585938 12.561402 0.000000 
0.585938 12.759106 0.000000 
0.195312 12.958885 0.000000 
0.195312 13.160476 0.000000 
0.585938 12.958885 0.000000 
0.585938 13.160476 0.000000 
0.195312 13.364107 0.000000 
0.195312 13.569703 0.000000 
0.585938 13.364107 0.000000 
0.585938 13.569703 0.000000 
0.195312 13.777601 0.000000 
0.195312 13.987572 0.000000 
0.585938 13.777601 0.000000 
0.585938 13.987572 0.000000 
0.195312 14.199665 0.000000 
0.195312 14.413896 0.000000 
0.585938 14.199665 0.000000 
0.585938 14.413896 0.000000 
0.195312 14.630472 0.000000 
0.195312 14.849352 0.000000 
0.585938 14.630472 0.000000 
0.585938 14.849352 0.000000 
0.195312 15.070989 0.000000 
0.195312 15.295186 0.000000 
0.585938 15.070989 0.000000 
0.585938 15.295186 0.000000 
0.195312 15.522048 0.000000 
0.195312 15.751278 0.000000 
0.585938 15.522048 0.000000 
0.585938 15.751278 0.000000 
0.195312 15.983328 0.000000 
0.195312 16.218502 0.000000 
0.585938 15.983328 0.000000 
0.585938 16.218502 0.000000 
0.195312 16.456576 0.000000 
0.195312 16.697830 0.000000 
0.585938 16.456576 0.000000 
0.585938 16.697830 0.000000 
0.195312 16.942132 0.000000 
0.195312 17.189971 0.000000 
0.585938 16.942132 0.000000 
0.585938 17.189971 0.000000 
0.195312 17.440998 0.000000 
0.195312 17.695613 0.000000 
0.585938 17.440998 0.000000 
0.585938 17.695613 0.000000 
0.195312 17.954025 0.000000 
0.195312 18.216097 0.000000 
0.585938 17.954025 0.000000 
0.585938 18.216097 0.000000 
0.195312 18.482385 0.000000 
0.195312 18.752746 0.000000 
0.585938 18.482385 0.000000 
0.585938 18.752746 0.000000 
0.195312 19.027541 0.000000 
0.195312 19.306875 0.000000 
0.585938 19.027541 0.000000 
0.585938 19.306875 0.000000 
0.195312 19.591134 0.000000 
0.195312 19.880462 0.000000 
0.585938 19.591134 0.000000 
0.585938 19.880462 0.000000 
0.195312 20.174818 0.000000 
0.195312 20.474928 0.000000 
0.585938 20.174818 0.000000 
0.585938 20.474928 0.000000 
0.195312 20.780583 0.000000 
0.195312 21.093033 0.000000 
0.585938 20.780583 0.000000 
0.585938 21.093033 0.000000 
0.195312 21.411127 0.000000 
0.195312 21.737133 0.000000 
0.585938 21.411127 0.000000 
0.585938 21.737133 0.000000 
0.195312 22.070038 0.000000 
0.195312 22.410819 0.000000 
0.585938 22.070038 0.000000 
0.585938 22.410819 0.000000 
0.195312 22.758173 0.000000 
0.195312 23.118455 0.000000 
0.585938 22.758173 0.000000 
0.585938 23.118455 0.000000 
0.195312 23.486174 0.000000 
0.195312 23.854980 0.000000 
0.585938 23.486174 0.000000 
0.585938 23.854980 0.000000 

POINT_DATA 256
SCALARS sigma_xx FLOAT 1
LOOKUP_TABLE default
0.000000
0.000000
0.000000
0.000000
-0.000000
-0.000000
-0.000000
-0.000000
-0.000000
-0.000000
-0.000000
-0.000000
-0.000000
-0.000000
-0.000000
-0.000000
-0.000000
-0.000000
-0.000000
-0.000000
-0.000000
-0.000000
-0.000000
-0.000000
-0.000000
-0.000000
-0.000000
-0.000000
-0.000000
-0.000000
-0.000000
-0.000000
-0.000000
-0.000000
-0.000000
-0.000000
-0.000000
-0.000000
-0.000000
-0.000000
-0.000000
-0.000000
-0.000000
-0.000000
-0.000000
-0.000000
-0.000000
0.000000
-0.000000
-0.000000
-0.000000
-0.000000
-0.000000
-0.000000
-0.000000
-0.000000
0.000000
-0.000000
0.000000
-0.000000
-0.000000
-0.000000
-0.000000
-0.000000
-0.000000
-0.000000
-0.000000
-0.000000
-0.000000
-0.000000
-0.000000
-0.000000
-0.000000
-0.000000
-0.000000
-0.000000
-0.000000
-0.000000
-0.000000
-0.000000
-0.000000
-0.000000
-0.000000
-0.000000
-0.000000
-0.000000
-0.000000
-0.000000
-0.000000
-0.000000
-0.000000
-0.000000
-0.000000
-0.000000
-0.000000
-0.000000
-0.000000
-0.000000
-0.000000
-0.000000
-0.000000
-0.000000
-0.000000
-0.000000
-0.000000
-0.000000
-0.000000
-0.000000
-0.000000
-0.000000
-0.000000
-0.000000
-0.000000
-0.000000
-0.000000
-0.000000
-0.000000
-0.000000
-0.000000
-0.000000
-0.000000
-0.000000
-0.000000
-0.000000
-0.000000
-0.000000
-0.000000
-0.000000
-0.000000
-0.000000
-0.000000
-0.000000
-0.000000
-0.000000
-0.000000
-0.000000
-0.000000
-0.000000
0.000000
-0.000000
-0.000000
-0.000000
-0.000000
-0.000000
-0.000000
-0.000000
-0.000000
-0.000000
-0.000000
0.000000
-0.000000
-0.000000
-0.000000
-0.000000
-0.000000
-0.000000
-0.000000
-0.000000
-0.000000
-0.000000
-0.000000
-0.000000
-0.000000
-0.000000
-0.000000
-0.000000
-0.000000
-0.000000
-0.000000
-0.000000
-0.000000
-0.000000
-0.000000
-0.000000
-0.000000
-0.000000
-0.000000
-0.000000
-0.000000
-0.000000
-0.000000
-0.000000
-0.000000
-0.000000
-0.000000
-0.000000
-0.000000
-0.000000
-0.000000
-0.000000
-0.000000
0.000000
-0.000000
-0.000000
-0.000000
-0.000000
-0.000000
-0.000000
-0.000000
-0.000000
-0.000000
-0.000000
-0.000000
-0.000000
-0.000000
-0.000000
0.000000
-0.000000
0.000000
-0.000000
-0.000000
-0.000000
-0.000000
-0.000000
-0.000000
-0.000000
0.000000
-0.000000
0.000000
-0.000000
-0.000000
-0.000000
-0.000000
0.000000
0.000000
0.000000
0.000000
0.000000
-0.000000
-0.000000
-0.000000
-0.000000
-0.000000
-0.000000
-0.000000
-0.000000
0.000000
0.000000
0.000000
0.000000
-0.000000
-0.000000
-0.000000
-0.000000
-0.000000
-0.000000
-0.000000
-0.000000
-0.000000
0.000000
-0.000000
0.000000
-0.000000
0.000000
-0.000000
0.000000

SCALARS sigma_yy FLOAT 1
LOOKUP_TABLE default
-39580.790566
-39580.790566
-39580.790566
-39580.790566
-39317.373919
-39013.039432
-39317.373919
-39013.039432
-38637.716965
-38297.276906
-38637.716965
-38297.276906
-37909.435646
-37657.731362
-37909.435646
-37657.731362
-37348.845890
-37057.186316
-37348.845890
-37057.186316
-36721.939406
-36417.772082
-36721.939406
-36417.772082
-36058.577006
-35769.458030
-36058.577006
-35769.458030
-35460.772001
-35170.510606
-35460.772001
-35170.510606
-34837.480797
-34550.551108
-34837.480797
-34550.551108
-34203.438250
-33919.108610
-34203.438250
-33919.108610
-33584.595574
-33293.802922
-33584.595574
-33293.802922
-32953.218107
-32680.709152
-32953.218107
-32680.709152
-32327.171315
-32038.769448
-32327.171315
-32038.769448
-31709.315441
-31430.115588
-31709.315441
-31430.115588
-31085.924594
-30798.337456
-31085.924594
-30798.337456
-30442.559432
-30159.799251
-30442.559432
-30159.799251
-29837.626142
-29524.991714
-29837.626142
-29524.991714
-29222.793555
-28911.539208
-29222.793555
-28911.539208
-28583.277006
-28278.909923
-28583.277006
-28278.909923
-27974.367570
-27670.683329
-27974.367570
-27670.683329
-27330.288716
-27049.857763
-27330.288716
-27049.857763
-26711.929796
-26422.296157
-26711.929796
-26422.296157
-26068.120589
-25795.024173
-26068.120589
-25795.024173
-25445.088626
-25153.457652
-25445.088626
-25153.457652
-24836.732741
-24526.589459
-24836.732741
-24526.589459
-24221.071965
-23902.553522
-24221.071965
-23902.553522
-23580.464404
-23299.303746
-23580.464404
-23299.303746
-22965.650906
-22673.585175
-22965.650906
-22673.585175
-22337.607783
-22041.854291
-22337.607783
-22041.854291
-21717.917629
-21423.818408
-21717.917629
-21423.818408
-21081.813956
-20791.772787
-21081.813956
-20791.772787
-20457.772656
-20167.385348
-20457.772656
-20167.385348
-19829.237661
-19558.766289
-19829.237661
-19558.766289
-19193.197599
-18921.232812
-19193.197599
-18921.232812
-18576.410831
-18282.166901
-18576.410831
-18282.166901
-17962.777906
-17649.576756
-17962.777906
-17649.576756
-17341.915999
-17040.486338
-17341.915999
-17040.486338
-16722.292435
-16420.473173
-16722.292435
-16420.473173
-16084.106489
-15789.241288
-16084.106489
-15789.241288
-15480.073674
-15135.166752
-15480.073674
-15135.166752
-14848.829102
-14532.608881
-14848.829102
-14532.608881
-14227.193292
-13900.957595
-14227.193292
-13900.957595
-13598.179466
-13278.104161
-13598.179466
-13278.104161
-12966.410964
-12656.325315
-12966.410964
-12656.325315
-12342.720085
-12021.851019
-12342.720085
-12021.851019
-11706.161710
-11391.599372
-11706.161710
-11391.599372
-11105.216443
-10800.850007
-11105.216443
-10800.850007
-10484.066017
-10169.386970
-10484.066017
-10169.386970
-9819.016117
-9525.735927
-9819.016117
-9525.735927
-9207.960550
-8937.057994
-9207.960550
-8937.057994
-8590.402985
-8278.995091
-8590.402985
-8278.995091
-7962.978950
-7657.209511
-7962.978950
-7657.209511
-7342.438867
-7021.359198
-7342.438867
-7021.359198
-6717.165624
-6412.858851
-6717.165624
-6412.858851
-6098.320730
-5787.440351
-6098.320730
-5787.440351
-5461.468487
-5161.491382
-5461.468487
-5161.491382
-4848.109073
-4530.764939
-4848.109073
-4530.764939
-4208.762748
-3907.018383
-4208.762748
-3907.018383
-3586.041876
-3291.686054
-3586.041876
-3291.686054
-2961.311394
-2661.818289
-2961.311394
-2661.818289
-2348.120533
-2021.376572
-2348.120533
-2021.376572
-1713.562249
-1449.487677
-1713.562249
-1449.487677
-1130.264023
-700.591651
-1130.264023
-700.591651
-589.273534
-24.711671
-589.273534
-24.711671

SCALARS sigma_zz FLOAT 1
LOOKUP_TABLE default
0.000000
0.000000
0.000000
0.000000
0.000000
0.000000
0.000000
0.000000
0.000000
0.000000
0.000000
0.000000
0.000000
0.000000
0.000000
0.000000
0.000000
0.000000
0.000000
0.000000
0.000000
0.000000
0.000000
0.000000
0.000000
0.000000
0.000000
0.000000
0.000000
0.000000
0.000000
0.000000
0.000000
0.000000
0.000000
0.000000
0.000000
0.000000
0.000000
0.000000
0.000000
0.000000
0.000000
0.000000
0.000000
0.000000
0.000000
0.000000
0.000000
0.000000
0.000000
0.000000
0.000000
0.000000
0.000000
0.000000
0.000000
0.000000
0.000000
0.000000
0.000000
0.000000
0.000000
0.000000
0.000000
0.000000
0.000000
0.000000
0.000000
0.000000
0.000000
0.000000
0.000000
0.000000
0.000000
0.000000
0.000000
0.000000
0.000000
0.000000
0.000000
0.000000
0.000000
0.000000
0.000000
0.000000
0.000000
0.000000
0.000000
0.000000
0.000000
0.000000
0.000000
0.000000
0.000000
0.000000
0.000000
0.000000
0.000000
0.000000
0.000000
0.000000
0.000000
0.000000
0.000000
0.000000
0.000000
0.000000
0.000000
0.000000
0.000000
0.000000
0.000000
0.000000
0.000000
0.000000
0.000000
0.000000
0.000000
0.000000
0.000000
0.000000
0.000000
0.000000
0.000000
0.000000
0.000000
0.000000
0.000000
0.000000
0.000000
0.000000
0.000000
0.000000
0.000000
0.000000
0.000000
0.000000
0.000000
0.000000
0.000000
0.000000
0.000000
0.000000
0.000000
0.000000
0.000000
0.000000
0.000000
0.000000
0.000000
0.000000
0.000000
0.000000
0.000000
0.000000
0.000000
0.000000
0.000000
0.000000
0.000000
0.000000
0.000000
0.000000
0.000000
0.000000
0.000000
0.000000
0.000000
0.000000
0.000000
0.000000
0.000000
0.000000
0.000000
0.000000
0.000000
0.000000
0.000000
0.000000
0.000000
0.000000
0.000000
0.000000
0.000000
0.000000
0.000000
0.000000
0.000000
0.000000
0.000000
0.000000
0.000000
0.000000
0.000000
0.000000
0.000000
0.000000
0.000000
0.000000
0.000000
0.000000
0.000000
0.000000
0.000000
0.000000
0.000000
0.000000
0.000000
0.000000
0.000000
0.000000
0.000000
0.000000
0.000000
0.000000
0.000000
0.000000
0.000000
0.000000
0.000000
0.000000
0.000000
0.000000
0.000000
0.000000
0.000000
0.000000
0.000000
0.000000
0.000000
0.000000
0.000000
0.000000
0.000000
0.000000
0.000000
0.000000
0.000000
0.000000
0.000000
0.000000
0.000000
0.000000
0.000000
0.000000
0.000000
0.000000
0.000000
0.000000
0.000000
0.000000
0.000000
0.000000
0.000000
0.000000

SCALARS sigma_xy FLOAT 1
LOOKUP_TABLE default
0.000000
0.000000
0.000000
0.000000
-0.000000
-0.000000
-0.000000
-0.000000
-0.000000
-0.000000
-0.000000
-0.000000
-0.000000
0.000000
-0.000000
-0.000000
0.000000
0.000000
0.000000
0.000000
0.000000
0.000000
0.000000
0.000000
0.000000
0.000000
0.000000
0.000000
0.000000
0.000000
0.000000
0.000000
-0.000000
-0.000000
-0.000000
-0.000000
-0.000000
-0.000000
-0.000000
-0.000000
0.000000
0.000000
0.000000
0.000000
0.000000
0.000000
0.000000
0.000000
-0.000000
-0.000000
-0.000000
-0.000000
-0.000000
-0.000000
-0.000000
-0.000000
0.000000
0.000000
0.000000
0.000000
0.000000
0.000000
0.000000
0.000000
0.000000
0.000000
0.000000
0.000000
-0.000000
-0.000000
-0.000000
-0.000000
-0.000000
-0.000000
-0.000000
-0.000000
-0.000000
-0.000000
-0.000000
-0.000000
0.000000
0.000000
0.000000
0.000000
0.000000
0.000000
0.000000
0.000000
-0.000000
-0.000000
-0.000000
-0.000000
-0.000000
-0.000000
-0.000000
-0.000000
-0.000000
0.000000
-0.000000
0.000000
0.000000
0.000000
0.000000
0.000000
0.000000
0.000000
0.000000
0.000000
-0.000000
0.000000
-0.000000
0.000000
0.000000
0.000000
0.000000
0.000000
0.000000
0.000000
0.000000
0.000000
-0.000000
-0.000000
-0.000000
-0.000000
-0.000000
-0.000000
-0.000000
-0.000000
-0.000000
-0.000000
-0.000000
-0.000000
0.000000
-0.000000
0.000000
-0.000000
0.000000
0.000000
0.000000
0.000000
0.000000
0.000000
0.000000
0.000000
-0.000000
-0.000000
-0.000000
-0.000000
0.000000
0.000000
0.000000
0.000000
-0.000000
-0.000000
-0.000000
-0.000000
-0.000000
-0.000000
-0.000000
-0.000000
-0.000000
-0.000000
-0.000000
-0.000000
0.000000
0.000000
0.000000
0.000000
0.000000
0.000000
0.000000
0.000000
0.000000
0.000000
0.000000
0.000000
-0.000000
-0.000000
-0.000000
-0.000000
-0.000000
-0.000000
-0.000000
-0.000000
0.000000
-0.000000
0.000000
-0.000000
0.000000
0.000000
0.000000
0.000000
0.000000
-0.000000
0.000000
-0.000000
0.000000
-0.000000
0.000000
-0.000000
0.000000
-0.000000
0.000000
-0.000000
0.000000
-0.000000
0.000000
-0.000000
0.000000
0.000000
0.000000
0.000000
-0.000000
0.000000
-0.000000
0.000000
0.000000
0.000000
0.000000
0.000000
-0.000000
-0.000000
-0.000000
0.000000
0.000000
0.000000
0.000000
0.000000
-0.000000
-0.000000
-0.000000
-0.000000
-0.000000
-0.000000
-0.000000
-0.000000
0.000000
0.000000
0.000000
0.000000
0.000000
0.000000
0.000000
0.000000
-0.000000
-0.000000
-0.000000
-0.000000
-0.000000
0.000000
-0.000000
0.000000
-0.000000
0.000000
-0.000000
0.000000

SCALARS sigma_yz FLOAT 1
LOOKUP_TABLE default
0.000000
0.000000
0.000000
0.000000
0.000000
0.000000
0.000000
0.000000
0.000000
0.000000
0.000000
0.000000
0.000000
0.000000
0.000000
0.000000
0.000000
0.000000
0.000000
0.000000
0.000000
0.000000
0.000000
0.000000
0.000000
0.000000
0.000000
0.000000
0.000000
0.000000
0.000000
0.000000
0.000000
0.000000
0.000000
0.000000
0.000000
0.000000
0.000000
0.000000
0.000000
0.000000
0.000000
0.000000
0.000000
0.000000
0.000000
0.000000
0.000000
0.000000
0.000000
0.000000
0.000000
0.000000
0.000000
0.000000
0.000000
0.000000
0.000000
0.000000
0.000000
0.000000
0.000000
0.000000
0.000000
0.000000
0.000000
0.000000
0.000000
0.000000
0.000000
0.000000
0.000000
0.000000
0.000000
0.000000
0.000000
0.000000
0.000000
0.000000
0.000000
0.000000
0.000000
0.000000
0.000000
0.000000
0.000000
0.000000
0.000000
0.000000
0.000000
0.000000
0.000000
0.000000
0.000000
0.000000
0.000000
0.000000
0.000000
0.000000
0.000000
0.000000
0.000000
0.000000
0.000000
0.000000
0.000000
0.000000
0.000000
0.000000
0.000000
0.000000
0.000000
0.000000
0.000000
0.000000
0.000000
0.000000
0.000000
0.000000
0.000000
0.000000
0.000000
0.000000
0.000000
0.000000
0.000000
0.000000
0.000000
0.000000
0.000000
0.000000
0.000000
0.000000
0.000000
0.000000
0.000000
0.000000
0.000000
0.000000
0.000000
0.000000
0.000000
0.000000
0.000000
0.000000
0.000000
0.000000
0.000000
0.000000
0.000000
0.000000
0.000000
0.000000
0.000000
0.000000
0.000000
0.000000
0.000000
0.000000
0.000000
0.000000
0.000000
0.000000
0.000000
0.000000
0.000000
0.000000
0.000000
0.000000
0.000000
0.000000
0.000000
0.000000
0.000000
0.000000
0.000000
0.000000
0.000000
0.000000
0.000000
0.000000
0.000000
0.000000
0.000000
0.000000
0.000000
0.000000
0.000000
0.000000
0.000000
0.000000
0.000000
0.000000
0.000000
0.000000
0.000000
0.000000
0.000000
0.000000
0.000000
0.000000
0.000000
0.000000
0.000000
0.000000
0.000000
0.000000
0.000000
0.000000
0.000000
0.000000
0.000000
0.000000
0.000000
0.000000
0.000000
0.000000
0.000000
0.000000
0.000000
0.000000
0.000000
0.000000
0.000000
0.000000
0.000000
0.000000
0.000000
0.000000
0.000000
0.000000
0.000000
0.000000
0.000000
0.000000
0.000000
0.000000
0.000000
0.000000
0.000000
0.000000
0.000000
0.000000
0.000000
0.000000
0.000000
0.000000
0.000000
0.000000
0.000000
0.000000
0.000000
0.000000
0.000000
0.000000

SCALARS sigma_zx FLOAT 1
LOOKUP_TABLE default
0.000000
0.000000
0.000000
0.000000
0.000000
0.000000
0.000000
0.000000
0.000000
0.000000
0.000000
0.000000
0.000000
0.000000
0.000000
0.000000
0.000000
0.000000
0.000000
0.000000
0.000000
0.000000
0.000000
0.000000
0.000000
0.000000
0.000000
0.000000
0.000000
0.000000
0.000000
0.000000
0.000000
0.000000
0.000000
0.000000
0.000000
0.000000
0.000000
0.000000
0.000000
0.000000
0.000000
0.000000
0.000000
0.000000
0.000000
0.000000
0.000000
0.000000
0.000000
0.000000
0.000000
0.000000
0.000000
0.000000
0.000000
0.000000
0.000000
0.000000
0.000000
0.000000
0.000000
0.000000
0.000000
0.000000
0.000000
0.000000
0.000000
0.000000
0.000000
0.000000
0.000000
0.000000
0.000000
0.000000
0.000000
0.000000
0.000000
0.000000
0.000000
0.000000
0.000000
0.000000
0.000000
0.000000
0.000000
0.000000
0.000000
0.000000
0.000000
0.000000
0.000000
0.000000
0.000000
0.000000
0.000000
0.000000
0.000000
0.000000
0.000000
0.000000
0.000000
0.000000
0.000000
0.000000
0.000000
0.000000
0.000000
0.000000
0.000000
0.000000
0.000000
0.000000
0.000000
0.000000
0.000000
0.000000
0.000000
0.000000
0.000000
0.000000
0.000000
0.000000
0.000000
0.000000
0.000000
0.000000
0.000000
0.000000
0.000000
0.000000
0.000000
0.000000
0.000000
0.000000
0.000000
0.000000
0.000000
0.000000
0.000000
0.000000
0.000000
0.000000
0.000000
0.000000
0.000000
0.000000
0.000000
0.000000
0.000000
0.000000
0.000000
0.000000
0.000000
0.000000
0.000000
0.000000
0.000000
0.000000
0.000000
0.000000
0.000000
0.000000
0.000000
0.000000
0.000000
0.000000
0.000000
0.000000
0.000000
0.000000
0.000000
0.000000
0.000000
0.000000
0.000000
0.000000
0.000000
0.000000
0.000000
0.000000
0.000000
0.000000
0.000000
0.000000
0.000000
0.000000
0.000000
0.000000
0.000000
0.000000
0.000000
0.000000
0.000000
0.000000
0.000000
0.000000
0.000000
0.000000
0.000000
0.000000
0.000000
0.000000
0.000000
0.000000
0.000000
0.000000
0.000000
0.000000
0.000000
0.000000
0.000000
0.000000
0.000000
0.000000
0.000000
0.000000
0.000000
0.000000
0.000000
0.000000
0.000000
0.000000
0.000000
0.000000
0.000000
0.000000
0.000000
0.000000
0.000000
0.000000
0.000000
0.000000
0.000000
0.000000
0.000000
0.000000
0.000000
0.000000
0.000000
0.000000
0.000000
0.000000
0.000000
0.000000
0.000000
0.000000
0.000000
0.000000
0.000000
0.000000
0.000000
0.000000
0.000000
0.000000

SCALARS u_x FLOAT 1
LOOKUP_TABLE default
0.000000
0.000000
0.000000
0.000000
0.000000
0.000000
0.000000
0.000000
0.000000
0.000000
0.000000
0.000000
0.000000
0.000000
0.000000
0.000000
0.000000
0.000000
0.000000
0.000000
0.000000
0.000000
0.000000
0.000000
0.000000
0.000000
0.000000
0.000000
0.000000
0.000000
0.000000
0.000000
0.000000
0.000000
0.000000
0.000000
0.000000
0.000000
0.000000
0.000000
0.000000
0.000000
0.000000
0.000000
0.000000
0.000000
0.000000
0.000000
0.000000
0.000000
0.000000
0.000000
0.000000
0.000000
0.000000
0.000000
0.000000
0.000000
0.000000
0.000000
0.000000
0.000000
0.000000
0.000000
0.000000
0.000000
0.000000
0.000000
0.000000
0.000000
0.000000
0.000000
0.000000
0.000000
0.000000
0.000000
0.000000
0.000000
0.000000
0.000000
0.000000
0.000000
0.000000
0.000000
0.000000
0.000000
0.000000
0.000000
0.000000
0.000000
0.000000
0.000000
0.000000
0.000000
0.000000
0.000000
0.000000
0.000000
0.000000
0.000000
0.000000
0.000000
0.000000
0.000000
0.000000
0.000000
0.000000
0.000000
0.000000
0.000000
0.000000
0.000000
0.000000
0.000000
0.000000
0.000000
0.000000
0.000000
0.000000
0.000000
0.000000
0.000000
0.000000
0.000000
0.000000
0.000000
0.000000
0.000000
0.000000
0.000000
0.000000
0.000000
0.000000
0.000000
0.000000
0.000000
0.000000
0.000000
0.000000
0.000000
0.000000
0.000000
0.000000
0.000000
0.000000
0.000000
0.000000
0.000000
0.000000
0.000000
0.000000
0.000000
0.000000
0.000000
0.000000
0.000000
0.000000
0.000000
0.000000
0.000000
0.000000
0.000000
0.000000
0.000000
0.000000
0.000000
0.000000
0.000000
0.000000
0.000000
0.000000
0.000000
0.000000
0.000000
0.000000
0.000000
0.000000
0.000000
0.000000
0.000000
0.000000
0.000000
0.000000
0.000000
0.000000
0.000000
0.000000
0.000000
0.000000
0.000000
0.000000
0.000000
0.000000
0.000000
0.000000
0.000000
0.000000
0.000000
0.000000
0.000000
0.000000
0.000000
0.000000
0.000000
0.000000
0.000000
0.000000
0.000000
0.000000
0.000000
0.000000
0.000000
0.000000
0.000000
0.000000
0.000000
0.000000
0.000000
0.000000
0.000000
0.000000
0.000000
0.000000
0.000000
0.000000
0.000000
0.000000
0.000000
0.000000
0.000000
0.000000
0.000000
0.000000
0.000000
0.000000
0.000000
0.000000
0.000000
0.000000
0.000000
0.000000
0.000000
0.000000
0.000000
0.000000
0.000000
0.000000
0.000000
0.000000
0.000000
0.000000
0.000000
0.000000
0.000000
0.000000
0.000000

SCALARS u_y FLOAT 1
LOOKUP_TABLE default
-0.136275
-0.408824
-0.136275
-0.408824
-0.681211
-0.953061
-0.681211
-0.953061
-1.224386
-1.495081
-1.224386
-1.495081
-1.765169
-2.034696
-1.765169
-2.034696
-2.303754
-2.572274
-2.303754
-2.572274
-2.840247
-3.107633
-2.840247
-3.107633
-3.374428
-3.640607
-3.374428
-3.640607
-3.906256
-4.171329
-3.906256
-4.171329
-4.435825
-4.699717
-4.435825
-4.699717
-4.962988
-5.225632
-4.962988
-5.225632
-5.487652
-5.749056
-5.487652
-5.749056
-6.009820
-6.269951
-6.009820
-6.269951
-6.529405
-6.788186
-6.529405
-6.788186
-7.046299
-7.303791
-7.046299
-7.303791
-7.560563
-7.816630
-7.560563
-7.816630
-8.071994
-8.326611
-8.071994
-8.326611
-8.580518
-8.833666
-8.580518
-8.833666
-9.086152
-9.337813
-9.086152
-9.337813
-9.588726
-9.838841
-9.588726
-9.838841
-10.088223
-10.336807
-10.088223
-10.336807
-10.584541
-10.831536
-10.584541
-10.831536
-11.077590
-11.322901
-11.077590
-11.322901
-11.567264
-11.810810
-11.567264
-11.810810
-12.053436
-12.295151
-12.053436
-12.295151
-12.535995
-12.775869
-12.535995
-12.775869
-13.014870
-13.252914
-13.014870
-13.252914
-13.489910
-13.726058
-13.489910
-13.726058
-13.961097
-14.195197
-13.961097
-14.195197
-14.428239
-14.660235
-14.428239
-14.660235
-14.891168
-15.121050
-14.891168
-15.121050
-15.349774
-15.577339
-15.349774
-15.577339
-15.803831
-16.029110
-15.803831
-16.029110
-16.253155
-16.476128
-16.253155
-16.476128
-16.697734
-16.918154
-16.697734
-16.918154
-17.137334
-17.355044
-17.137334
-17.355044
-17.571574
-17.786635
-17.571574
-17.786635
-18.000401
-18.212770
-18.000401
-18.212770
-18.423723
-18.633171
-18.423723
-18.633171
-18.841122
-19.047521
-18.841122
-19.047521
-19.252437
-19.455623
-19.252437
-19.455623
-19.657195
-19.857072
-19.657195
-19.857072
-20.055351
-20.251834
-20.055351
-20.251834
-20.446411
-20.639331
-20.446411
-20.639331
-20.830178
-21.019211
-20.830178
-21.019211
-21.206206
-21.391235
-21.206206
-21.391235
-21.573962
-21.754615
-21.573962
-21.754615
-21.933147
-22.109541
-21.933147
-22.109541
-22.283591
-22.455335
-22.283591
-22.455335
-22.624323
-22.790752
-22.624323
-22.790752
-22.954515
-23.115909
-22.954515
-23.115909
-23.274485
-23.429935
-23.274485
-23.429935
-23.582487
-23.731858
-23.582487
-23.731858
-23.878181
-24.020967
-23.878181
-24.020967
-24.160565
-24.296574
-24.160565
-24.296574
-24.428788
-24.557340
-24.428788
-24.557340
-24.681677
-24.801941
-24.681677
-24.801941
-24.917771
-25.029062
-24.917771
-25.029062
-25.135429
-25.236726
-25.135429
-25.236726
-25.332995
-25.423510
-25.332995
-25.423510
-25.508479
-25.586654
-25.508479
-25.586654
-25.659185
-25.723805
-25.659185
-25.723805
-25.781524
-25.831369
-25.781524
-25.831369
-25.874640
-25.904982
-25.874640
-25.904982
-25.927889
-25.949708
-25.927889
-25.949708

