# vtk DataFile Version 2.0
MATLAB generated vtk file, WMC
ASCII
DATASET UNSTRUCTURED_GRID
POINTS 256 double
0.195312 0.079993 0.000000 
0.195312 0.239978 0.000000 
0.585938 0.079993 0.000000 
0.585938 0.239978 0.000000 
0.195312 0.400185 0.000000 
0.195312 0.561118 0.000000 
0.585938 0.400185 0.000000 
0.585938 0.561118 0.000000 
0.195312 0.722762 0.000000 
0.195312 0.885155 0.000000 
0.585938 0.722762 0.000000 
0.585938 0.885155 0.000000 
0.195312 1.048061 0.000000 
0.195312 1.211554 0.000000 
0.585938 1.048061 0.000000 
0.585938 1.211554 0.000000 
0.195312 1.375670 0.000000 
0.195312 1.540513 0.000000 
0.585938 1.375670 0.000000 
0.585938 1.540513 0.000000 
0.195312 1.706023 0.000000 
0.195312 1.872148 0.000000 
0.585938 1.706023 0.000000 
0.585938 1.872148 0.000000 
0.195312 2.038892 0.000000 
0.195312 2.206344 0.000000 
0.585938 2.038892 0.000000 
0.585938 2.206344 0.000000 
0.195312 2.374467 0.000000 
0.195312 2.543229 0.000000 
0.585938 2.374467 0.000000 
0.585938 2.543229 0.000000 
0.195312 2.712652 0.000000 
0.195312 2.882767 0.000000 
0.585938 2.712652 0.000000 
0.585938 2.882767 0.000000 
0.195312 3.053604 0.000000 
0.195312 3.225184 0.000000 
0.585938 3.053604 0.000000 
0.585938 3.225184 0.000000 
0.195312 3.397487 0.000000 
0.195312 3.570486 0.000000 
0.585938 3.397487 0.000000 
0.585938 3.570486 0.000000 
0.195312 3.744229 0.000000 
0.195312 3.918683 0.000000 
0.585938 3.744229 0.000000 
0.585938 3.918683 0.000000 
0.195312 4.093881 0.000000 
0.195312 4.269815 0.000000 
0.585938 4.093881 0.000000 
0.585938 4.269815 0.000000 
0.195312 4.446560 0.000000 
0.195312 4.624048 0.000000 
0.585938 4.446560 0.000000 
0.585938 4.624048 0.000000 
0.195312 4.802382 0.000000 
0.195312 4.981452 0.000000 
0.585938 4.802382 0.000000 
0.585938 4.981452 0.000000 
0.195312 5.161269 0.000000 
0.195312 5.341904 0.000000 
0.585938 5.161269 0.000000 
0.585938 5.341904 0.000000 
0.195312 5.523383 0.000000 
0.195312 5.705738 0.000000 
0.585938 5.523383 0.000000 
0.585938 5.705738 0.000000 
0.195312 5.888826 0.000000 
0.195312 6.072861 0.000000 
0.585938 5.888826 0.000000 
0.585938 6.072861 0.000000 
0.195312 6.257741 0.000000 
0.195312 6.443502 0.000000 
0.585938 6.257741 0.000000 
0.585938 6.443502 0.000000 
0.195312 6.630063 0.000000 
0.195312 6.817505 0.000000 
0.585938 6.630063 0.000000 
0.585938 6.817505 0.000000 
0.195312 7.005935 0.000000 
0.195312 7.195136 0.000000 
0.585938 7.005935 0.000000 
0.585938 7.195136 0.000000 
0.195312 7.385399 0.000000 
0.195312 7.576483 0.000000 
0.585938 7.385399 0.000000 
0.585938 7.576483 0.000000 
0.195312 7.768634 0.000000 
0.195312 7.961629 0.000000 
0.585938 7.768634 0.000000 
0.585938 7.961629 0.000000 
0.195312 8.155572 0.000000 
0.195312 8.350526 0.000000 
0.585938 8.155572 0.000000 
0.585938 8.350526 0.000000 
0.195312 8.546485 0.000000 
0.195312 8.743533 0.000000 
0.585938 8.546485 0.000000 
0.585938 8.743533 0.000000 
0.195312 8.941480 0.000000 
0.195312 9.140456 0.000000 
0.585938 8.941480 0.000000 
0.585938 9.140456 0.000000 
0.195312 9.340530 0.000000 
0.195312 9.541573 0.000000 
0.585938 9.340530 0.000000 
0.585938 9.541573 0.000000 
0.195312 9.743858 0.000000 
0.195312 9.947164 0.000000 
0.585938 9.743858 0.000000 
0.585938 9.947164 0.000000 
0.195312 10.151677 0.000000 
0.195312 10.357209 0.000000 
0.585938 10.151677 0.000000 
0.585938 10.357209 0.000000 
0.195312 10.563832 0.000000 
0.195312 10.771652 0.000000 
0.585938 10.563832 0.000000 
0.585938 10.771652 0.000000 
0.195312 10.980671 0.000000 
0.195312 11.190936 0.000000 
0.585938 10.980671 0.000000 
0.585938 11.190936 0.000000 
0.195312 11.402326 0.000000 
0.195312 11.614952 0.000000 
0.585938 11.402326 0.000000 
0.585938 11.614952 0.000000 
0.195312 11.828890 0.000000 
0.195312 12.043919 0.000000 
0.585938 11.828890 0.000000 
0.585938 12.043919 0.000000 
0.195312 12.260395 0.000000 
0.195312 12.478159 0.000000 
0.585938 12.260395 0.000000 
0.585938 12.478159 0.000000 
0.195312 12.697222 0.000000 
0.195312 12.917813 0.000000 
0.585938 12.697222 0.000000 
0.585938 12.917813 0.000000 
0.195312 13.139520 0.000000 
0.195312 13.362761 0.000000 
0.585938 13.139520 0.000000 
0.585938 13.362761 0.000000 
0.195312 13.587232 0.000000 
0.195312 13.813223 0.000000 
0.585938 13.587232 0.000000 
0.585938 13.813223 0.000000 
0.195312 14.040740 0.000000 
0.195312 14.269706 0.000000 
0.585938 14.040740 0.000000 
0.585938 14.269706 0.000000 
0.195312 14.500282 0.000000 
0.195312 14.732389 0.000000 
0.585938 14.500282 0.000000 
0.585938 14.732389 0.000000 
0.195312 14.965967 0.000000 
0.195312 15.201341 0.000000 
0.585938 14.965967 0.000000 
0.585938 15.201341 0.000000 
0.195312 15.438171 0.000000 
0.195312 15.676793 0.000000 
0.585938 15.438171 0.000000 
0.585938 15.676793 0.000000 
0.195312 15.916904 0.000000 
0.195312 16.158792 0.000000 
0.585938 15.916904 0.000000 
0.585938 16.158792 0.000000 
0.195312 16.402672 0.000000 
0.195312 16.647892 0.000000 
0.585938 16.402672 0.000000 
0.585938 16.647892 0.000000 
0.195312 16.895292 0.000000 
0.195312 17.144368 0.000000 
0.585938 16.895292 0.000000 
0.585938 17.144368 0.000000 
0.195312 17.395518 0.000000 
0.195312 17.648506 0.000000 
0.585938 17.395518 0.000000 
0.585938 17.648506 0.000000 
0.195312 17.903594 0.000000 
0.195312 18.160652 0.000000 
0.585938 17.903594 0.000000 
0.585938 18.160652 0.000000 
0.195312 18.419762 0.000000 
0.195312 18.681057 0.000000 
0.585938 18.419762 0.000000 
0.585938 18.681057 0.000000 
0.195312 18.944612 0.000000 
0.195312 19.209955 0.000000 
0.585938 18.944612 0.000000 
0.585938 19.209955 0.000000 
0.195312 19.478067 0.000000 
0.195312 19.748131 0.000000 
0.585938 19.478067 0.000000 
0.585938 19.748131 0.000000 
0.195312 20.020924 0.000000 
0.195312 20.295818 0.000000 
0.585938 20.020924 0.000000 
0.585938 20.295818 0.000000 
0.195312 20.573324 0.000000 
0.195312 20.853478 0.000000 
0.585938 20.573324 0.000000 
0.585938 20.853478 0.000000 
0.195312 21.135988 0.000000 
0.195312 21.421521 0.000000 
0.585938 21.135988 0.000000 
0.585938 21.421521 0.000000 
0.195312 21.709588 0.000000 
0.195312 22.000735 0.000000 
0.585938 21.709588 0.000000 
0.585938 22.000735 0.000000 
0.195312 22.294345 0.000000 
0.195312 22.591261 0.000000 
0.585938 22.294345 0.000000 
0.585938 22.591261 0.000000 
0.195312 22.891584 0.000000 
0.195312 23.194763 0.000000 
0.585938 22.891584 0.000000 
0.585938 23.194763 0.000000 
0.195312 23.501178 0.000000 
0.195312 23.810618 0.000000 
0.585938 23.501178 0.000000 
0.585938 23.810618 0.000000 
0.195312 24.124245 0.000000 
0.195312 24.441408 0.000000 
0.585938 24.124245 0.000000 
0.585938 24.441408 0.000000 
0.195312 24.762062 0.000000 
0.195312 25.086329 0.000000 
0.585938 24.762062 0.000000 
0.585938 25.086329 0.000000 
0.195312 25.414416 0.000000 
0.195312 25.747027 0.000000 
0.585938 25.414416 0.000000 
0.585938 25.747027 0.000000 
0.195312 26.083706 0.000000 
0.195312 26.425532 0.000000 
0.585938 26.083706 0.000000 
0.585938 26.425532 0.000000 
0.195312 26.771257 0.000000 
0.195312 27.122181 0.000000 
0.585938 26.771257 0.000000 
0.585938 27.122181 0.000000 
0.195312 27.477452 0.000000 
0.195312 27.838539 0.000000 
0.585938 27.477452 0.000000 
0.585938 27.838539 0.000000 
0.195312 28.204371 0.000000 
0.195312 28.576815 0.000000 
0.585938 28.204371 0.000000 
0.585938 28.576815 0.000000 
0.195312 28.953842 0.000000 
0.195312 29.336317 0.000000 
0.585938 28.953842 0.000000 
0.585938 29.336317 0.000000 

POINT_DATA 256
SCALARS sigma_xx FLOAT 1
LOOKUP_TABLE default
0.000000
0.000000
0.000000
0.000000
0.000000
0.000000
0.000000
0.000000
-0.000000
0.000000
-0.000000
0.000000
-0.000000
-0.000000
-0.000000
-0.000000
-0.000000
-0.000000
-0.000000
-0.000000
-0.000000
-0.000000
-0.000000
-0.000000
-0.000000
-0.000000
-0.000000
-0.000000
-0.000000
-0.000000
-0.000000
-0.000000
-0.000000
-0.000000
-0.000000
-0.000000
-0.000000
-0.000000
-0.000000
-0.000000
0.000000
-0.000000
0.000000
-0.000000
-0.000000
0.000000
-0.000000
-0.000000
-0.000000
0.000000
-0.000000
0.000000
-0.000000
-0.000000
-0.000000
-0.000000
0.000000
-0.000000
0.000000
-0.000000
-0.000000
-0.000000
-0.000000
-0.000000
-0.000000
-0.000000
-0.000000
-0.000000
-0.000000
-0.000000
-0.000000
-0.000000
-0.000000
-0.000000
-0.000000
0.000000
-0.000000
-0.000000
-0.000000
-0.000000
-0.000000
-0.000000
-0.000000
-0.000000
-0.000000
-0.000000
-0.000000
-0.000000
0.000000
-0.000000
0.000000
-0.000000
-0.000000
-0.000000
-0.000000
-0.000000
-0.000000
0.000000
-0.000000
0.000000
-0.000000
-0.000000
-0.000000
-0.000000
-0.000000
-0.000000
-0.000000
-0.000000
-0.000000
-0.000000
-0.000000
-0.000000
-0.000000
-0.000000
-0.000000
-0.000000
-0.000000
-0.000000
-0.000000
-0.000000
-0.000000
-0.000000
-0.000000
-0.000000
-0.000000
-0.000000
-0.000000
-0.000000
-0.000000
-0.000000
-0.000000
-0.000000
-0.000000
-0.000000
-0.000000
-0.000000
-0.000000
-0.000000
-0.000000
-0.000000
-0.000000
-0.000000
-0.000000
-0.000000
-0.000000
0.000000
-0.000000
0.000000
-0.000000
-0.000000
-0.000000
-0.000000
-0.000000
-0.000000
-0.000000
-0.000000
-0.000000
-0.000000
-0.000000
-0.000000
-0.000000
0.000000
-0.000000
0.000000
-0.000000
0.000000
-0.000000
-0.000000
0.000000
-0.000000
0.000000
-0.000000
-0.000000
-0.000000
-0.000000
-0.000000
-0.000000
-0.000000
-0.000000
-0.000000
-0.000000
-0.000000
-0.000000
-0.000000
-0.000000
-0.000000
-0.000000
-0.000000
-0.000000
0.000000
-0.000000
-0.000000
-0.000000
-0.000000
-0.000000
0.000000
-0.000000
-0.000000
-0.000000
-0.000000
-0.000000
-0.000000
-0.000000
-0.000000
-0.000000
-0.000000
-0.000000
-0.000000
-0.000000
-0.000000
-0.000000
-0.000000
-0.000000
-0.000000
-0.000000
0.000000
0.000000
-0.000000
0.000000
-0.000000
-0.000000
-0.000000
-0.000000
-0.000000
0.000000
-0.000000
0.000000
-0.000000
-0.000000
-0.000000
-0.000000
-0.000000
0.000000
-0.000000
-0.000000
0.000000
-0.000000
-0.000000
-0.000000
-0.000000
0.000000
-0.000000
0.000000
-0.000000
-0.000000
-0.000000
-0.000000
0.000000
-0.000000
-0.000000
-0.000000
-0.000000
0.000000
0.000000
0.000000
0.000000

SCALARS sigma_yy FLOAT 1
LOOKUP_TABLE default
-21795.509186
-21795.509186
-21795.509186
-21795.509186
-21628.006287
-21434.540069
-21628.006287
-21434.540069
-21197.668519
-21050.596862
-21197.668519
-21050.596862
-20883.248225
-20735.604630
-20883.248225
-20735.604630
-20538.488114
-20355.859685
-20538.488114
-20355.859685
-20180.483525
-20033.187822
-20180.483525
-20033.187822
-19846.977157
-19677.249175
-19846.977157
-19677.249175
-19500.463427
-19349.233834
-19500.463427
-19349.233834
-19164.824344
-19008.103378
-19164.824344
-19008.103378
-18811.315762
-18653.888363
-18811.315762
-18653.888363
-18466.103267
-18310.373916
-18466.103267
-18310.373916
-18117.764794
-17978.732231
-18117.764794
-17978.732231
-17786.524222
-17629.653867
-17786.524222
-17629.653867
-17432.799916
-17272.864021
-17432.799916
-17272.864021
-17087.639876
-16945.478765
-17087.639876
-16945.478765
-16751.004303
-16598.747257
-16751.004303
-16598.747257
-16409.369782
-16241.593928
-16409.369782
-16241.593928
-16068.170560
-15896.954361
-16068.170560
-15896.954361
-15715.667788
-15550.644491
-15715.667788
-15550.644491
-15388.478486
-15214.233229
-15388.478486
-15214.233229
-15028.619552
-14876.827831
-15028.619552
-14876.827831
-14688.137332
-14528.830914
-14688.137332
-14528.830914
-14330.636032
-14198.568926
-14330.636032
-14198.568926
-14008.950793
-13840.224563
-14008.950793
-13840.224563
-13658.036020
-13490.891535
-13658.036020
-13490.891535
-13324.486053
-13159.177258
-13324.486053
-13159.177258
-12976.217589
-12814.120413
-12976.217589
-12814.120413
-12629.155064
-12458.744718
-12629.155064
-12458.744718
-12271.035815
-12131.398624
-12271.035815
-12131.398624
-11942.348402
-11778.264644
-11942.348402
-11778.264644
-11593.800312
-11431.483976
-11593.800312
-11431.483976
-11249.558888
-11098.633160
-11249.558888
-11098.633160
-10903.908441
-10766.329093
-10903.908441
-10766.329093
-10552.736301
-10402.576556
-10552.736301
-10402.576556
-10206.126400
-10059.289329
-10206.126400
-10059.289329
-9879.729176
-9720.092882
-9879.729176
-9720.092882
-9550.187747
-9368.555524
-9550.187747
-9368.555524
-9196.436825
-9030.616867
-9196.436825
-9030.616867
-8834.338250
-8685.889695
-8834.338250
-8685.889695
-8503.484266
-8324.491139
-8503.484266
-8324.491139
-8171.961584
-7987.319107
-8171.961584
-7987.319107
-7833.311500
-7636.266353
-7833.311500
-7636.266353
-7484.108985
-7314.103624
-7484.108985
-7314.103624
-7130.007741
-6969.439383
-7130.007741
-6969.439383
-6777.295111
-6621.944607
-6777.295111
-6621.944607
-6446.548289
-6269.225823
-6446.548289
-6269.225823
-6107.242015
-5917.815939
-6107.242015
-5917.815939
-5759.897449
-5596.164294
-5759.897449
-5596.164294
-5399.373839
-5256.812734
-5399.373839
-5256.812734
-5045.559704
-4921.842373
-5045.559704
-4921.842373
-4707.032105
-4570.573788
-4707.032105
-4570.573788
-4376.701188
-4214.263386
-4376.701188
-4214.263386
-4035.813585
-3873.177466
-4035.813585
-3873.177466
-3699.793147
-3516.613014
-3699.793147
-3516.613014
-3335.289204
-3184.734247
-3335.289204
-3184.734247
-3014.961129
-2851.301067
-3014.961129
-2851.301067
-2634.680466
-2495.130073
-2634.680466
-2495.130073
-2315.271143
-2175.894700
-2315.271143
-2175.894700
-1967.191255
-1820.944360
-1967.191255
-1820.944360
-1615.223716
-1456.122466
-1615.223716
-1456.122466
-1285.908682
-1121.010203
-1285.908682
-1121.010203
-947.934321
-770.407373
-947.934321
-770.407373
-612.577027
-424.530001
-612.577027
-424.530001
-271.470742
-59.330433
-271.470742
-59.330433

SCALARS sigma_zz FLOAT 1
LOOKUP_TABLE default
0.000000
0.000000
0.000000
0.000000
0.000000
0.000000
0.000000
0.000000
0.000000
0.000000
0.000000
0.000000
0.000000
0.000000
0.000000
0.000000
0.000000
0.000000
0.000000
0.000000
0.000000
0.000000
0.000000
0.000000
0.000000
0.000000
0.000000
0.000000
0.000000
0.000000
0.000000
0.000000
0.000000
0.000000
0.000000
0.000000
0.000000
0.000000
0.000000
0.000000
0.000000
0.000000
0.000000
0.000000
0.000000
0.000000
0.000000
0.000000
0.000000
0.000000
0.000000
0.000000
0.000000
0.000000
0.000000
0.000000
0.000000
0.000000
0.000000
0.000000
0.000000
0.000000
0.000000
0.000000
0.000000
0.000000
0.000000
0.000000
0.000000
0.000000
0.000000
0.000000
0.000000
0.000000
0.000000
0.000000
0.000000
0.000000
0.000000
0.000000
0.000000
0.000000
0.000000
0.000000
0.000000
0.000000
0.000000
0.000000
0.000000
0.000000
0.000000
0.000000
0.000000
0.000000
0.000000
0.000000
0.000000
0.000000
0.000000
0.000000
0.000000
0.000000
0.000000
0.000000
0.000000
0.000000
0.000000
0.000000
0.000000
0.000000
0.000000
0.000000
0.000000
0.000000
0.000000
0.000000
0.000000
0.000000
0.000000
0.000000
0.000000
0.000000
0.000000
0.000000
0.000000
0.000000
0.000000
0.000000
0.000000
0.000000
0.000000
0.000000
0.000000
0.000000
0.000000
0.000000
0.000000
0.000000
0.000000
0.000000
0.000000
0.000000
0.000000
0.000000
0.000000
0.000000
0.000000
0.000000
0.000000
0.000000
0.000000
0.000000
0.000000
0.000000
0.000000
0.000000
0.000000
0.000000
0.000000
0.000000
0.000000
0.000000
0.000000
0.000000
0.000000
0.000000
0.000000
0.000000
0.000000
0.000000
0.000000
0.000000
0.000000
0.000000
0.000000
0.000000
0.000000
0.000000
0.000000
0.000000
0.000000
0.000000
0.000000
0.000000
0.000000
0.000000
0.000000
0.000000
0.000000
0.000000
0.000000
0.000000
0.000000
0.000000
0.000000
0.000000
0.000000
0.000000
0.000000
0.000000
0.000000
0.000000
0.000000
0.000000
0.000000
0.000000
0.000000
0.000000
0.000000
0.000000
0.000000
0.000000
0.000000
0.000000
0.000000
0.000000
0.000000
0.000000
0.000000
0.000000
0.000000
0.000000
0.000000
0.000000
0.000000
0.000000
0.000000
0.000000
0.000000
0.000000
0.000000
0.000000
0.000000
0.000000
0.000000
0.000000
0.000000
0.000000
0.000000
0.000000
0.000000
0.000000
0.000000
0.000000
0.000000
0.000000
0.000000
0.000000
0.000000
0.000000
0.000000
0.000000
0.000000
0.000000
0.000000
0.000000

SCALARS sigma_xy FLOAT 1
LOOKUP_TABLE default
0.000000
0.000000
0.000000
0.000000
0.000000
0.000000
0.000000
0.000000
0.000000
0.000000
0.000000
0.000000
0.000000
0.000000
0.000000
0.000000
0.000000
0.000000
0.000000
0.000000
-0.000000
-0.000000
-0.000000
-0.000000
-0.000000
-0.000000
-0.000000
-0.000000
0.000000
0.000000
0.000000
0.000000
0.000000
0.000000
0.000000
0.000000
0.000000
0.000000
0.000000
0.000000
0.000000
0.000000
0.000000
0.000000
0.000000
0.000000
0.000000
-0.000000
-0.000000
0.000000
-0.000000
0.000000
0.000000
0.000000
0.000000
0.000000
0.000000
-0.000000
0.000000
-0.000000
-0.000000
-0.000000
-0.000000
-0.000000
0.000000
0.000000
0.000000
0.000000
0.000000
0.000000
0.000000
0.000000
0.000000
0.000000
0.000000
0.000000
-0.000000
-0.000000
-0.000000
-0.000000
-0.000000
0.000000
-0.000000
0.000000
0.000000
0.000000
0.000000
0.000000
0.000000
-0.000000
0.000000
-0.000000
-0.000000
-0.000000
-0.000000
-0.000000
-0.000000
0.000000
-0.000000
0.000000
0.000000
0.000000
0.000000
0.000000
0.000000
0.000000
0.000000
0.000000
-0.000000
-0.000000
-0.000000
-0.000000
-0.000000
-0.000000
-0.000000
-0.000000
-0.000000
0.000000
-0.000000
0.000000
0.000000
-0.000000
0.000000
-0.000000
-0.000000
-0.000000
-0.000000
-0.000000
-0.000000
0.000000
-0.000000
0.000000
0.000000
0.000000
0.000000
0.000000
-0.000000
-0.000000
-0.000000
-0.000000
-0.000000
-0.000000
-0.000000
-0.000000
-0.000000
0.000000
-0.000000
0.000000
0.000000
0.000000
0.000000
0.000000
-0.000000
-0.000000
-0.000000
-0.000000
0.000000
0.000000
0.000000
0.000000
0.000000
0.000000
-0.000000
0.000000
-0.000000
0.000000
-0.000000
0.000000
0.000000
0.000000
0.000000
0.000000
0.000000
0.000000
0.000000
0.000000
-0.000000
-0.000000
-0.000000
-0.000000
-0.000000
0.000000
-0.000000
0.000000
0.000000
-0.000000
0.000000
-0.000000
-0.000000
0.000000
-0.000000
-0.000000
0.000000
0.000000
0.000000
0.000000
0.000000
0.000000
0.000000
0.000000
-0.000000
-0.000000
-0.000000
-0.000000
-0.000000
-0.000000
-0.000000
-0.000000
0.000000
0.000000
0.000000
0.000000
-0.000000
-0.000000
-0.000000
0.000000
0.000000
0.000000
0.000000
0.000000
-0.000000
-0.000000
-0.000000
-0.000000
0.000000
0.000000
0.000000
0.000000
0.000000
-0.000000
0.000000
-0.000000
0.000000
-0.000000
-0.000000
0.000000
0.000000
0.000000
0.000000
0.000000
0.000000
0.000000
0.000000
0.000000
-0.000000
-0.000000
-0.000000
0.000000
0.000000
-0.000000
-0.000000
-0.000000
0.000000
0.000000
0.000000
0.000000

SCALARS sigma_yz FLOAT 1
LOOKUP_TABLE default
0.000000
0.000000
0.000000
0.000000
0.000000
0.000000
0.000000
0.000000
0.000000
0.000000
0.000000
0.000000
0.000000
0.000000
0.000000
0.000000
0.000000
0.000000
0.000000
0.000000
0.000000
0.000000
0.000000
0.000000
0.000000
0.000000
0.000000
0.000000
0.000000
0.000000
0.000000
0.000000
0.000000
0.000000
0.000000
0.000000
0.000000
0.000000
0.000000
0.000000
0.000000
0.000000
0.000000
0.000000
0.000000
0.000000
0.000000
0.000000
0.000000
0.000000
0.000000
0.000000
0.000000
0.000000
0.000000
0.000000
0.000000
0.000000
0.000000
0.000000
0.000000
0.000000
0.000000
0.000000
0.000000
0.000000
0.000000
0.000000
0.000000
0.000000
0.000000
0.000000
0.000000
0.000000
0.000000
0.000000
0.000000
0.000000
0.000000
0.000000
0.000000
0.000000
0.000000
0.000000
0.000000
0.000000
0.000000
0.000000
0.000000
0.000000
0.000000
0.000000
0.000000
0.000000
0.000000
0.000000
0.000000
0.000000
0.000000
0.000000
0.000000
0.000000
0.000000
0.000000
0.000000
0.000000
0.000000
0.000000
0.000000
0.000000
0.000000
0.000000
0.000000
0.000000
0.000000
0.000000
0.000000
0.000000
0.000000
0.000000
0.000000
0.000000
0.000000
0.000000
0.000000
0.000000
0.000000
0.000000
0.000000
0.000000
0.000000
0.000000
0.000000
0.000000
0.000000
0.000000
0.000000
0.000000
0.000000
0.000000
0.000000
0.000000
0.000000
0.000000
0.000000
0.000000
0.000000
0.000000
0.000000
0.000000
0.000000
0.000000
0.000000
0.000000
0.000000
0.000000
0.000000
0.000000
0.000000
0.000000
0.000000
0.000000
0.000000
0.000000
0.000000
0.000000
0.000000
0.000000
0.000000
0.000000
0.000000
0.000000
0.000000
0.000000
0.000000
0.000000
0.000000
0.000000
0.000000
0.000000
0.000000
0.000000
0.000000
0.000000
0.000000
0.000000
0.000000
0.000000
0.000000
0.000000
0.000000
0.000000
0.000000
0.000000
0.000000
0.000000
0.000000
0.000000
0.000000
0.000000
0.000000
0.000000
0.000000
0.000000
0.000000
0.000000
0.000000
0.000000
0.000000
0.000000
0.000000
0.000000
0.000000
0.000000
0.000000
0.000000
0.000000
0.000000
0.000000
0.000000
0.000000
0.000000
0.000000
0.000000
0.000000
0.000000
0.000000
0.000000
0.000000
0.000000
0.000000
0.000000
0.000000
0.000000
0.000000
0.000000
0.000000
0.000000
0.000000
0.000000
0.000000
0.000000
0.000000
0.000000
0.000000
0.000000
0.000000
0.000000
0.000000
0.000000
0.000000
0.000000
0.000000
0.000000
0.000000
0.000000

SCALARS sigma_zx FLOAT 1
LOOKUP_TABLE default
0.000000
0.000000
0.000000
0.000000
0.000000
0.000000
0.000000
0.000000
0.000000
0.000000
0.000000
0.000000
0.000000
0.000000
0.000000
0.000000
0.000000
0.000000
0.000000
0.000000
0.000000
0.000000
0.000000
0.000000
0.000000
0.000000
0.000000
0.000000
0.000000
0.000000
0.000000
0.000000
0.000000
0.000000
0.000000
0.000000
0.000000
0.000000
0.000000
0.000000
0.000000
0.000000
0.000000
0.000000
0.000000
0.000000
0.000000
0.000000
0.000000
0.000000
0.000000
0.000000
0.000000
0.000000
0.000000
0.000000
0.000000
0.000000
0.000000
0.000000
0.000000
0.000000
0.000000
0.000000
0.000000
0.000000
0.000000
0.000000
0.000000
0.000000
0.000000
0.000000
0.000000
0.000000
0.000000
0.000000
0.000000
0.000000
0.000000
0.000000
0.000000
0.000000
0.000000
0.000000
0.000000
0.000000
0.000000
0.000000
0.000000
0.000000
0.000000
0.000000
0.000000
0.000000
0.000000
0.000000
0.000000
0.000000
0.000000
0.000000
0.000000
0.000000
0.000000
0.000000
0.000000
0.000000
0.000000
0.000000
0.000000
0.000000
0.000000
0.000000
0.000000
0.000000
0.000000
0.000000
0.000000
0.000000
0.000000
0.000000
0.000000
0.000000
0.000000
0.000000
0.000000
0.000000
0.000000
0.000000
0.000000
0.000000
0.000000
0.000000
0.000000
0.000000
0.000000
0.000000
0.000000
0.000000
0.000000
0.000000
0.000000
0.000000
0.000000
0.000000
0.000000
0.000000
0.000000
0.000000
0.000000
0.000000
0.000000
0.000000
0.000000
0.000000
0.000000
0.000000
0.000000
0.000000
0.000000
0.000000
0.000000
0.000000
0.000000
0.000000
0.000000
0.000000
0.000000
0.000000
0.000000
0.000000
0.000000
0.000000
0.000000
0.000000
0.000000
0.000000
0.000000
0.000000
0.000000
0.000000
0.000000
0.000000
0.000000
0.000000
0.000000
0.000000
0.000000
0.000000
0.000000
0.000000
0.000000
0.000000
0.000000
0.000000
0.000000
0.000000
0.000000
0.000000
0.000000
0.000000
0.000000
0.000000
0.000000
0.000000
0.000000
0.000000
0.000000
0.000000
0.000000
0.000000
0.000000
0.000000
0.000000
0.000000
0.000000
0.000000
0.000000
0.000000
0.000000
0.000000
0.000000
0.000000
0.000000
0.000000
0.000000
0.000000
0.000000
0.000000
0.000000
0.000000
0.000000
0.000000
0.000000
0.000000
0.000000
0.000000
0.000000
0.000000
0.000000
0.000000
0.000000
0.000000
0.000000
0.000000
0.000000
0.000000
0.000000
0.000000
0.000000
0.000000
0.000000
0.000000
0.000000
0.000000
0.000000
0.000000

SCALARS u_x FLOAT 1
LOOKUP_TABLE default
0.000000
0.000000
0.000000
0.000000
0.000000
0.000000
0.000000
0.000000
0.000000
0.000000
0.000000
0.000000
0.000000
0.000000
0.000000
0.000000
0.000000
0.000000
0.000000
0.000000
0.000000
0.000000
0.000000
0.000000
0.000000
0.000000
0.000000
0.000000
0.000000
0.000000
0.000000
0.000000
0.000000
0.000000
0.000000
0.000000
0.000000
0.000000
0.000000
0.000000
0.000000
0.000000
0.000000
0.000000
0.000000
0.000000
0.000000
0.000000
0.000000
0.000000
0.000000
0.000000
0.000000
0.000000
0.000000
0.000000
0.000000
0.000000
0.000000
0.000000
0.000000
0.000000
0.000000
0.000000
0.000000
0.000000
0.000000
0.000000
0.000000
0.000000
0.000000
0.000000
0.000000
0.000000
0.000000
0.000000
0.000000
0.000000
0.000000
0.000000
0.000000
0.000000
0.000000
0.000000
0.000000
0.000000
0.000000
0.000000
0.000000
0.000000
0.000000
0.000000
0.000000
0.000000
0.000000
0.000000
0.000000
0.000000
0.000000
0.000000
0.000000
0.000000
0.000000
0.000000
0.000000
0.000000
0.000000
0.000000
0.000000
0.000000
0.000000
0.000000
0.000000
0.000000
0.000000
0.000000
0.000000
0.000000
0.000000
0.000000
0.000000
0.000000
0.000000
0.000000
0.000000
0.000000
0.000000
0.000000
0.000000
0.000000
0.000000
0.000000
0.000000
0.000000
0.000000
0.000000
0.000000
0.000000
0.000000
0.000000
0.000000
0.000000
0.000000
0.000000
0.000000
0.000000
0.000000
0.000000
0.000000
0.000000
0.000000
0.000000
0.000000
0.000000
0.000000
0.000000
0.000000
0.000000
0.000000
0.000000
0.000000
0.000000
0.000000
0.000000
0.000000
0.000000
0.000000
0.000000
0.000000
0.000000
0.000000
0.000000
0.000000
0.000000
0.000000
0.000000
0.000000
0.000000
0.000000
0.000000
0.000000
0.000000
0.000000
0.000000
0.000000
0.000000
0.000000
0.000000
0.000000
0.000000
0.000000
0.000000
0.000000
0.000000
0.000000
0.000000
0.000000
0.000000
0.000000
0.000000
0.000000
0.000000
0.000000
0.000000
0.000000
0.000000
0.000000
0.000000
0.000000
0.000000
0.000000
0.000000
0.000000
0.000000
0.000000
0.000000
0.000000
0.000000
0.000000
0.000000
0.000000
0.000000
0.000000
0.000000
0.000000
0.000000
0.000000
0.000000
0.000000
0.000000
0.000000
0.000000
0.000000
0.000000
0.000000
0.000000
0.000000
0.000000
0.000000
0.000000
0.000000
0.000000
0.000000
0.000000
0.000000
0.000000
0.000000
0.000000
0.000000
0.000000
0.000000
0.000000
0.000000
0.000000
0.000000
0.000000

SCALARS u_y FLOAT 1
LOOKUP_TABLE default
-0.115320
-0.345959
-0.115320
-0.345959
-0.576378
-0.806070
-0.576378
-0.806070
-1.035051
-1.263282
-1.035051
-1.263282
-1.491002
-1.718134
-1.491002
-1.718134
-1.944642
-2.170425
-1.944642
-2.170425
-2.395540
-2.620039
-2.395540
-2.620039
-2.843920
-3.067093
-2.843920
-3.067093
-3.289596
-3.511458
-3.289596
-3.511458
-3.732661
-3.953171
-3.732661
-3.953171
-4.172958
-4.392004
-4.172958
-4.392004
-4.610325
-4.827951
-4.610325
-4.827951
-5.044834
-5.261004
-5.044834
-5.261004
-5.476432
-5.691123
-5.476432
-5.691123
-5.905003
-6.118140
-5.905003
-6.118140
-6.330430
-6.541986
-6.330430
-6.541986
-6.752794
-6.962783
-6.752794
-6.962783
-7.171930
-7.380199
-7.171930
-7.380199
-7.587736
-7.794326
-7.587736
-7.794326
-8.000072
-8.204935
-8.000072
-8.204935
-8.409000
-8.612182
-8.409000
-8.612182
-8.814378
-9.015802
-8.814378
-9.015802
-9.216164
-9.415705
-9.216164
-9.415705
-9.614179
-9.811809
-9.614179
-9.811809
-10.008491
-10.204162
-10.008491
-10.204162
-10.398828
-10.592405
-10.398828
-10.592405
-10.785083
-10.976732
-10.785083
-10.976732
-11.167283
-11.356865
-11.167283
-11.356865
-11.545204
-11.732523
-11.545204
-11.732523
-11.918636
-12.103728
-11.918636
-12.103728
-12.287730
-12.470536
-12.287730
-12.470536
-12.652142
-12.832502
-12.652142
-12.832502
-13.011737
-13.189736
-13.011737
-13.189736
-13.366423
-13.542018
-13.366423
-13.542018
-13.716168
-13.889029
-13.716168
-13.889029
-14.060591
-14.230624
-14.060591
-14.230624
-14.399542
-14.566926
-14.399542
-14.566926
-14.733081
-14.897715
-14.733081
-14.897715
-15.060823
-15.222481
-15.060823
-15.222481
-15.382530
-15.541049
-15.382530
-15.541049
-15.698095
-15.853346
-15.698095
-15.853346
-16.007142
-16.159145
-16.007142
-16.159145
-16.309659
-16.458395
-16.309659
-16.458395
-16.605140
-16.750545
-16.605140
-16.750545
-16.893770
-17.035320
-16.893770
-17.035320
-17.174794
-17.312432
-17.174794
-17.312432
-17.447969
-17.581536
-17.447969
-17.581536
-17.713050
-17.842381
-17.713050
-17.842381
-17.969450
-18.094733
-17.969450
-18.094733
-18.217246
-18.337807
-18.217246
-18.337807
-18.455639
-18.571369
-18.455639
-18.571369
-18.684489
-18.794959
-18.684489
-18.794959
-18.903075
-19.008166
-18.903075
-19.008166
-19.110725
-19.210202
-19.110725
-19.210202
-19.307217
-19.400927
-19.307217
-19.400927
-19.491229
-19.578675
-19.491229
-19.578675
-19.662884
-19.744070
-19.662884
-19.744070
-19.821068
-19.894529
-19.821068
-19.894529
-19.964501
-20.030859
-19.964501
-20.030859
-20.093397
-20.151410
-20.093397
-20.151410
-20.205357
-20.254156
-20.205357
-20.254156
-20.299055
-20.338756
-20.299055
-20.338756
-20.374110
-20.403649
-20.374110
-20.403649
-20.428441
-20.446622
-20.428441
-20.446622
-20.460221
-20.468371
-20.460221
-20.468371

