# vtk DataFile Version 2.0
MATLAB generated vtk file, WMC
ASCII
DATASET UNSTRUCTURED_GRID
POINTS 256 double
0.195312 0.137653 0.000000 
0.195312 0.412959 0.000000 
0.585938 0.137653 0.000000 
0.585938 0.412959 0.000000 
0.195312 0.688642 0.000000 
0.195312 0.965244 0.000000 
0.585938 0.688642 0.000000 
0.585938 0.965244 0.000000 
0.195312 1.242202 0.000000 
0.195312 1.519869 0.000000 
0.585938 1.242202 0.000000 
0.585938 1.519869 0.000000 
0.195312 1.798120 0.000000 
0.195312 2.076915 0.000000 
0.585938 1.798120 0.000000 
0.585938 2.076915 0.000000 
0.195312 2.356314 0.000000 
0.195312 2.636231 0.000000 
0.585938 2.356314 0.000000 
0.585938 2.636231 0.000000 
0.195312 2.916691 0.000000 
0.195312 3.197805 0.000000 
0.585938 2.916691 0.000000 
0.585938 3.197805 0.000000 
0.195312 3.479512 0.000000 
0.195312 3.761908 0.000000 
0.585938 3.479512 0.000000 
0.585938 3.761908 0.000000 
0.195312 4.044936 0.000000 
0.195312 4.328447 0.000000 
0.585938 4.044936 0.000000 
0.585938 4.328447 0.000000 
0.195312 4.612569 0.000000 
0.195312 4.897239 0.000000 
0.585938 4.612569 0.000000 
0.585938 4.897239 0.000000 
0.195312 5.182625 0.000000 
0.195312 5.468688 0.000000 
0.585938 5.182625 0.000000 
0.585938 5.468688 0.000000 
0.195312 5.755361 0.000000 
0.195312 6.042543 0.000000 
0.585938 5.755361 0.000000 
0.585938 6.042543 0.000000 
0.195312 6.330467 0.000000 
0.195312 6.618972 0.000000 
0.585938 6.330467 0.000000 
0.585938 6.618972 0.000000 
0.195312 6.908236 0.000000 
0.195312 7.198015 0.000000 
0.585938 6.908236 0.000000 
0.585938 7.198015 0.000000 
0.195312 7.488469 0.000000 
0.195312 7.779546 0.000000 
0.585938 7.488469 0.000000 
0.585938 7.779546 0.000000 
0.195312 8.071284 0.000000 
0.195312 8.363710 0.000000 
0.585938 8.071284 0.000000 
0.585938 8.363710 0.000000 
0.195312 8.656754 0.000000 
0.195312 8.950585 0.000000 
0.585938 8.656754 0.000000 
0.585938 8.950585 0.000000 
0.195312 9.245035 0.000000 
0.195312 9.540293 0.000000 
0.585938 9.245035 0.000000 
0.585938 9.540293 0.000000 
0.195312 9.835940 0.000000 
0.195312 10.132520 0.000000 
0.585938 9.835940 0.000000 
0.585938 10.132520 0.000000 
0.195312 10.429597 0.000000 
0.195312 10.727617 0.000000 
0.585938 10.429597 0.000000 
0.585938 10.727617 0.000000 
0.195312 11.026219 0.000000 
0.195312 11.325413 0.000000 
0.585938 11.026219 0.000000 
0.585938 11.325413 0.000000 
0.195312 11.625465 0.000000 
0.195312 11.926000 0.000000 
0.585938 11.625465 0.000000 
0.585938 11.926000 0.000000 
0.195312 12.227633 0.000000 
0.195312 12.529758 0.000000 
0.585938 12.227633 0.000000 
0.585938 12.529758 0.000000 
0.195312 12.832704 0.000000 
0.195312 13.136238 0.000000 
0.585938 12.832704 0.000000 
0.585938 13.136238 0.000000 
0.195312 13.440468 0.000000 
0.195312 13.745627 0.000000 
0.585938 13.440468 0.000000 
0.585938 13.745627 0.000000 
0.195312 14.051415 0.000000 
0.195312 14.358063 0.000000 
0.585938 14.051415 0.000000 
0.585938 14.358063 0.000000 
0.195312 14.665412 0.000000 
0.195312 14.973481 0.000000 
0.585938 14.665412 0.000000 
0.585938 14.973481 0.000000 
0.195312 15.282451 0.000000 
0.195312 15.592039 0.000000 
0.585938 15.282451 0.000000 
0.585938 15.592039 0.000000 
0.195312 15.902659 0.000000 
0.195312 16.213865 0.000000 
0.585938 15.902659 0.000000 
0.585938 16.213865 0.000000 
0.195312 16.525930 0.000000 
0.195312 16.838667 0.000000 
0.585938 16.525930 0.000000 
0.585938 16.838667 0.000000 
0.195312 17.152191 0.000000 
0.195312 17.466645 0.000000 
0.585938 17.152191 0.000000 
0.585938 17.466645 0.000000 
0.195312 17.781885 0.000000 
0.195312 18.098005 0.000000 
0.585938 17.781885 0.000000 
0.585938 18.098005 0.000000 
0.195312 18.414856 0.000000 
0.195312 18.732610 0.000000 
0.585938 18.414856 0.000000 
0.585938 18.732610 0.000000 
0.195312 19.051198 0.000000 
0.195312 19.370642 0.000000 
0.585938 19.051198 0.000000 
0.585938 19.370642 0.000000 
0.195312 19.690992 0.000000 
0.195312 20.012220 0.000000 
0.585938 19.690992 0.000000 
0.585938 20.012220 0.000000 
0.195312 20.334179 0.000000 
0.195312 20.657024 0.000000 
0.585938 20.334179 0.000000 
0.585938 20.657024 0.000000 
0.195312 20.980603 0.000000 
0.195312 21.305321 0.000000 
0.585938 20.980603 0.000000 
0.585938 21.305321 0.000000 
0.195312 21.630726 0.000000 
0.195312 21.957369 0.000000 
0.585938 21.630726 0.000000 
0.585938 21.957369 0.000000 
0.195312 22.284653 0.000000 
0.195312 22.612983 0.000000 
0.585938 22.284653 0.000000 
0.585938 22.612983 0.000000 
0.195312 22.942023 0.000000 
0.195312 23.272141 0.000000 
0.585938 22.942023 0.000000 
0.585938 23.272141 0.000000 
0.195312 23.603115 0.000000 
0.195312 23.935119 0.000000 
0.585938 23.603115 0.000000 
0.585938 23.935119 0.000000 
0.195312 24.268072 0.000000 
0.195312 24.601983 0.000000 
0.585938 24.268072 0.000000 
0.585938 24.601983 0.000000 
0.195312 24.936904 0.000000 
0.195312 25.272700 0.000000 
0.585938 24.936904 0.000000 
0.585938 25.272700 0.000000 
0.195312 25.609562 0.000000 
0.195312 25.947277 0.000000 
0.585938 25.609562 0.000000 
0.585938 25.947277 0.000000 
0.195312 26.286096 0.000000 
0.195312 26.625817 0.000000 
0.585938 26.286096 0.000000 
0.585938 26.625817 0.000000 
0.195312 26.966760 0.000000 
0.195312 27.308530 0.000000 
0.585938 26.966760 0.000000 
0.585938 27.308530 0.000000 
0.195312 27.651578 0.000000 
0.195312 27.995416 0.000000 
0.585938 27.651578 0.000000 
0.585938 27.995416 0.000000 
0.195312 28.340586 0.000000 
0.195312 28.686496 0.000000 
0.585938 28.340586 0.000000 
0.585938 28.686496 0.000000 
0.195312 29.033747 0.000000 
0.195312 29.381804 0.000000 
0.585938 29.033747 0.000000 
0.585938 29.381804 0.000000 
0.195312 29.731252 0.000000 
0.195312 30.081545 0.000000 
0.585938 29.731252 0.000000 
0.585938 30.081545 0.000000 
0.195312 30.433208 0.000000 
0.195312 30.785796 0.000000 
0.585938 30.433208 0.000000 
0.585938 30.785796 0.000000 
0.195312 31.139662 0.000000 
0.195312 31.494609 0.000000 
0.585938 31.139662 0.000000 
0.585938 31.494609 0.000000 
0.195312 31.850749 0.000000 
0.195312 32.208078 0.000000 
0.585938 31.850749 0.000000 
0.585938 32.208078 0.000000 
0.195312 32.566484 0.000000 
0.195312 32.926154 0.000000 
0.585938 32.566484 0.000000 
0.585938 32.926154 0.000000 
0.195312 33.286856 0.000000 
0.195312 33.648923 0.000000 
0.585938 33.286856 0.000000 
0.585938 33.648923 0.000000 
0.195312 34.012013 0.000000 
0.195312 34.376585 0.000000 
0.585938 34.012013 0.000000 
0.585938 34.376585 0.000000 
0.195312 34.742166 0.000000 
0.195312 35.109274 0.000000 
0.585938 34.742166 0.000000 
0.585938 35.109274 0.000000 
0.195312 35.477402 0.000000 
0.195312 35.847084 0.000000 
0.585938 35.477402 0.000000 
0.585938 35.847084 0.000000 
0.195312 36.217816 0.000000 
0.195312 36.590117 0.000000 
0.585938 36.217816 0.000000 
0.585938 36.590117 0.000000 
0.195312 36.963509 0.000000 
0.195312 37.338475 0.000000 
0.585938 36.963509 0.000000 
0.585938 37.338475 0.000000 
0.195312 37.714585 0.000000 
0.195312 38.092268 0.000000 
0.585938 37.714585 0.000000 
0.585938 38.092268 0.000000 
0.195312 38.471151 0.000000 
0.195312 38.851612 0.000000 
0.585938 38.471151 0.000000 
0.585938 38.851612 0.000000 
0.195312 39.233328 0.000000 
0.195312 39.616597 0.000000 
0.585938 39.233328 0.000000 
0.585938 39.616597 0.000000 
0.195312 40.001187 0.000000 
0.195312 40.387549 0.000000 
0.585938 40.001187 0.000000 
0.585938 40.387549 0.000000 
0.195312 40.775063 0.000000 
0.195312 41.163770 0.000000 
0.585938 40.775063 0.000000 
0.585938 41.163770 0.000000 

POINT_DATA 256
SCALARS sigma_xx FLOAT 1
LOOKUP_TABLE default
0.000000
0.000000
0.000000
0.000000
0.000000
0.000000
0.000000
0.000000
0.000000
0.000000
0.000000
0.000000
0.000000
0.000000
0.000000
0.000000
0.000000
0.000000
0.000000
0.000000
0.000000
0.000000
0.000000
0.000000
0.000000
0.000000
0.000000
0.000000
0.000000
0.000000
0.000000
0.000000
0.000000
0.000000
0.000000
0.000000
-0.000000
0.000000
-0.000000
0.000000
0.000000
0.000000
0.000000
0.000000
-0.000000
0.000000
0.000000
0.000000
0.000000
-0.000000
0.000000
-0.000000
0.000000
-0.000000
0.000000
-0.000000
0.000000
-0.000000
0.000000
-0.000000
-0.000000
-0.000000
0.000000
-0.000000
-0.000000
0.000000
-0.000000
0.000000
0.000000
0.000000
0.000000
0.000000
0.000000
0.000000
0.000000
0.000000
0.000000
-0.000000
0.000000
-0.000000
0.000000
0.000000
0.000000
0.000000
0.000000
-0.000000
0.000000
-0.000000
0.000000
-0.000000
0.000000
-0.000000
-0.000000
0.000000
-0.000000
0.000000
-0.000000
-0.000000
-0.000000
-0.000000
-0.000000
-0.000000
-0.000000
-0.000000
0.000000
-0.000000
0.000000
-0.000000
-0.000000
-0.000000
-0.000000
-0.000000
-0.000000
0.000000
-0.000000
0.000000
-0.000000
-0.000000
-0.000000
-0.000000
0.000000
-0.000000
0.000000
-0.000000
0.000000
0.000000
0.000000
-0.000000
0.000000
-0.000000
0.000000
-0.000000
-0.000000
0.000000
0.000000
0.000000
0.000000
-0.000000
0.000000
-0.000000
0.000000
0.000000
0.000000
0.000000
-0.000000
0.000000
-0.000000
0.000000
-0.000000
-0.000000
-0.000000
-0.000000
0.000000
-0.000000
0.000000
-0.000000
-0.000000
-0.000000
-0.000000
-0.000000
-0.000000
0.000000
0.000000
0.000000
-0.000000
-0.000000
-0.000000
-0.000000
0.000000
0.000000
0.000000
-0.000000
-0.000000
0.000000
-0.000000
0.000000
-0.000000
0.000000
-0.000000
0.000000
0.000000
-0.000000
0.000000
-0.000000
0.000000
-0.000000
0.000000
-0.000000
-0.000000
-0.000000
-0.000000
-0.000000
0.000000
-0.000000
0.000000
-0.000000
-0.000000
-0.000000
-0.000000
-0.000000
0.000000
0.000000
-0.000000
0.000000
0.000000
0.000000
-0.000000
0.000000
0.000000
-0.000000
0.000000
-0.000000
0.000000
0.000000
0.000000
-0.000000
0.000000
0.000000
0.000000
0.000000
-0.000000
-0.000000
-0.000000
-0.000000
-0.000000
0.000000
-0.000000
0.000000
0.000000
0.000000
0.000000
0.000000
0.000000
0.000000
0.000000
-0.000000
-0.000000
-0.000000
-0.000000
-0.000000
0.000000
-0.000000
0.000000
-0.000000
-0.000000
-0.000000
-0.000000
-0.000000
0.000000
0.000000
0.000000
0.000000
-0.000000
0.000000
-0.000000
0.000000

SCALARS sigma_yy FLOAT 1
LOOKUP_TABLE default
-4964.160434
-4964.160434
-4964.160434
-4964.160434
-4896.744828
-4867.401212
-4896.744828
-4867.401212
-4824.592911
-4782.681932
-4824.592911
-4782.681932
-4741.512672
-4708.686912
-4741.512672
-4708.686912
-4663.561183
-4636.965633
-4663.561183
-4636.965633
-4590.666949
-4555.414797
-4590.666949
-4555.414797
-4507.644341
-4469.156940
-4507.644341
-4469.156940
-4427.886269
-4400.155749
-4427.886269
-4400.155749
-4353.659160
-4324.997965
-4353.659160
-4324.997965
-4270.379095
-4240.179662
-4270.379095
-4240.179662
-4197.045778
-4165.603024
-4197.045778
-4165.603024
-4113.543014
-4088.478902
-4113.543014
-4088.478902
-4032.110068
-4015.704040
-4032.110068
-4015.704040
-3956.112474
-3936.924374
-3956.112474
-3936.924374
-3879.248646
-3858.591392
-3879.248646
-3858.591392
-3799.272606
-3774.599985
-3799.272606
-3774.599985
-3718.914102
-3697.448210
-3718.914102
-3697.448210
-3652.333423
-3615.165536
-3652.333423
-3615.165536
-3574.828198
-3526.788505
-3574.828198
-3526.788505
-3501.268719
-3455.335918
-3501.268719
-3455.335918
-3420.936237
-3381.404549
-3420.936237
-3381.404549
-3328.164259
-3309.213290
-3328.164259
-3309.213290
-3251.420046
-3237.622140
-3251.420046
-3237.622140
-3176.091573
-3150.068203
-3176.091573
-3150.068203
-3102.397622
-3067.699552
-3102.397622
-3067.699552
-3027.353561
-2989.536668
-3027.353561
-2989.536668
-2945.655460
-2914.142021
-2945.655460
-2914.142021
-2860.384445
-2840.991246
-2860.384445
-2840.991246
-2784.221230
-2768.509706
-2784.221230
-2768.509706
-2707.194164
-2684.131581
-2707.194164
-2684.131581
-2627.620095
-2605.068333
-2627.620095
-2605.068333
-2552.973916
-2525.458545
-2552.973916
-2525.458545
-2473.592072
-2446.535843
-2473.592072
-2446.535843
-2390.223996
-2368.614770
-2390.223996
-2368.614770
-2318.080116
-2297.293652
-2318.080116
-2297.293652
-2241.001866
-2213.963459
-2241.001866
-2213.963459
-2162.571552
-2127.917949
-2162.571552
-2127.917949
-2088.689999
-2052.034393
-2088.689999
-2052.034393
-2014.851655
-1972.079313
-2014.851655
-1972.079313
-1936.471379
-1891.592535
-1936.471379
-1891.592535
-1857.041150
-1813.141036
-1857.041150
-1813.141036
-1778.020539
-1737.789529
-1778.020539
-1737.789529
-1699.692528
-1661.895705
-1699.692528
-1661.895705
-1622.086751
-1582.583720
-1622.086751
-1582.583720
-1541.215861
-1505.341212
-1541.215861
-1505.341212
-1461.595143
-1428.667375
-1461.595143
-1428.667375
-1381.819857
-1354.782186
-1381.819857
-1354.782186
-1302.445845
-1278.693452
-1302.445845
-1278.693452
-1220.511476
-1201.278916
-1220.511476
-1201.278916
-1140.047795
-1123.988945
-1140.047795
-1123.988945
-1061.229008
-1044.927097
-1061.229008
-1044.927097
-982.948636
-966.560820
-982.948636
-966.560820
-907.359851
-889.457545
-907.359851
-889.457545
-832.028727
-811.089985
-832.028727
-811.089985
-755.381486
-730.425068
-755.381486
-730.425068
-678.540806
-650.171678
-678.540806
-650.171678
-601.633969
-570.204041
-601.633969
-570.204041
-524.635139
-490.522097
-524.635139
-490.522097
-447.539930
-411.114030
-447.539930
-411.114030
-370.335048
-331.974620
-370.335048
-331.974620
-293.001584
-252.990938
-293.001584
-252.990938
-215.678723
-175.444372
-215.678723
-175.444372
-136.548791
-91.367673
-136.548791
-91.367673
-66.620225
-14.282667
-66.620225
-14.282667

SCALARS sigma_zz FLOAT 1
LOOKUP_TABLE default
0.000000
0.000000
0.000000
0.000000
0.000000
0.000000
0.000000
0.000000
0.000000
0.000000
0.000000
0.000000
0.000000
0.000000
0.000000
0.000000
0.000000
0.000000
0.000000
0.000000
0.000000
0.000000
0.000000
0.000000
0.000000
0.000000
0.000000
0.000000
0.000000
0.000000
0.000000
0.000000
0.000000
0.000000
0.000000
0.000000
0.000000
0.000000
0.000000
0.000000
0.000000
0.000000
0.000000
0.000000
0.000000
0.000000
0.000000
0.000000
0.000000
0.000000
0.000000
0.000000
0.000000
0.000000
0.000000
0.000000
0.000000
0.000000
0.000000
0.000000
0.000000
0.000000
0.000000
0.000000
0.000000
0.000000
0.000000
0.000000
0.000000
0.000000
0.000000
0.000000
0.000000
0.000000
0.000000
0.000000
0.000000
0.000000
0.000000
0.000000
0.000000
0.000000
0.000000
0.000000
0.000000
0.000000
0.000000
0.000000
0.000000
0.000000
0.000000
0.000000
0.000000
0.000000
0.000000
0.000000
0.000000
0.000000
0.000000
0.000000
0.000000
0.000000
0.000000
0.000000
0.000000
0.000000
0.000000
0.000000
0.000000
0.000000
0.000000
0.000000
0.000000
0.000000
0.000000
0.000000
0.000000
0.000000
0.000000
0.000000
0.000000
0.000000
0.000000
0.000000
0.000000
0.000000
0.000000
0.000000
0.000000
0.000000
0.000000
0.000000
0.000000
0.000000
0.000000
0.000000
0.000000
0.000000
0.000000
0.000000
0.000000
0.000000
0.000000
0.000000
0.000000
0.000000
0.000000
0.000000
0.000000
0.000000
0.000000
0.000000
0.000000
0.000000
0.000000
0.000000
0.000000
0.000000
0.000000
0.000000
0.000000
0.000000
0.000000
0.000000
0.000000
0.000000
0.000000
0.000000
0.000000
0.000000
0.000000
0.000000
0.000000
0.000000
0.000000
0.000000
0.000000
0.000000
0.000000
0.000000
0.000000
0.000000
0.000000
0.000000
0.000000
0.000000
0.000000
0.000000
0.000000
0.000000
0.000000
0.000000
0.000000
0.000000
0.000000
0.000000
0.000000
0.000000
0.000000
0.000000
0.000000
0.000000
0.000000
0.000000
0.000000
0.000000
0.000000
0.000000
0.000000
0.000000
0.000000
0.000000
0.000000
0.000000
0.000000
0.000000
0.000000
0.000000
0.000000
0.000000
0.000000
0.000000
0.000000
0.000000
0.000000
0.000000
0.000000
0.000000
0.000000
0.000000
0.000000
0.000000
0.000000
0.000000
0.000000
0.000000
0.000000
0.000000
0.000000
0.000000
0.000000
0.000000
0.000000
0.000000
0.000000
0.000000
0.000000
0.000000
0.000000
0.000000
0.000000
0.000000
0.000000
0.000000
0.000000
0.000000

SCALARS sigma_xy FLOAT 1
LOOKUP_TABLE default
0.000000
0.000000
0.000000
0.000000
0.000000
0.000000
0.000000
0.000000
0.000000
0.000000
0.000000
0.000000
0.000000
0.000000
0.000000
0.000000
0.000000
0.000000
0.000000
0.000000
0.000000
0.000000
0.000000
0.000000
0.000000
0.000000
0.000000
0.000000
0.000000
0.000000
0.000000
0.000000
0.000000
0.000000
0.000000
0.000000
-0.000000
0.000000
-0.000000
0.000000
0.000000
0.000000
0.000000
0.000000
-0.000000
0.000000
0.000000
0.000000
0.000000
0.000000
0.000000
0.000000
0.000000
0.000000
0.000000
0.000000
0.000000
0.000000
0.000000
0.000000
0.000000
-0.000000
0.000000
-0.000000
-0.000000
0.000000
-0.000000
0.000000
0.000000
0.000000
0.000000
0.000000
0.000000
0.000000
0.000000
0.000000
0.000000
-0.000000
0.000000
-0.000000
0.000000
0.000000
0.000000
0.000000
0.000000
-0.000000
0.000000
-0.000000
0.000000
0.000000
0.000000
0.000000
0.000000
0.000000
0.000000
0.000000
-0.000000
0.000000
-0.000000
0.000000
0.000000
0.000000
0.000000
0.000000
0.000000
-0.000000
0.000000
-0.000000
-0.000000
-0.000000
-0.000000
-0.000000
0.000000
0.000000
0.000000
0.000000
0.000000
0.000000
0.000000
0.000000
0.000000
0.000000
0.000000
0.000000
0.000000
0.000000
0.000000
0.000000
0.000000
-0.000000
0.000000
-0.000000
0.000000
0.000000
0.000000
0.000000
0.000000
-0.000000
0.000000
-0.000000
0.000000
0.000000
0.000000
0.000000
-0.000000
0.000000
-0.000000
0.000000
0.000000
0.000000
0.000000
0.000000
0.000000
-0.000000
0.000000
-0.000000
0.000000
0.000000
0.000000
0.000000
0.000000
0.000000
0.000000
0.000000
-0.000000
-0.000000
-0.000000
-0.000000
0.000000
0.000000
0.000000
-0.000000
-0.000000
0.000000
-0.000000
0.000000
-0.000000
0.000000
-0.000000
0.000000
0.000000
0.000000
0.000000
0.000000
0.000000
-0.000000
0.000000
-0.000000
0.000000
0.000000
0.000000
0.000000
0.000000
-0.000000
0.000000
-0.000000
-0.000000
0.000000
-0.000000
0.000000
0.000000
0.000000
0.000000
0.000000
0.000000
0.000000
-0.000000
0.000000
0.000000
0.000000
0.000000
0.000000
0.000000
0.000000
0.000000
0.000000
0.000000
0.000000
0.000000
0.000000
-0.000000
0.000000
-0.000000
0.000000
0.000000
0.000000
0.000000
0.000000
0.000000
0.000000
0.000000
0.000000
0.000000
0.000000
0.000000
0.000000
0.000000
-0.000000
0.000000
-0.000000
0.000000
0.000000
0.000000
0.000000
-0.000000
-0.000000
-0.000000
-0.000000
0.000000
0.000000
0.000000
0.000000
-0.000000
0.000000
-0.000000
0.000000

SCALARS sigma_yz FLOAT 1
LOOKUP_TABLE default
0.000000
0.000000
0.000000
0.000000
0.000000
0.000000
0.000000
0.000000
0.000000
0.000000
0.000000
0.000000
0.000000
0.000000
0.000000
0.000000
0.000000
0.000000
0.000000
0.000000
0.000000
0.000000
0.000000
0.000000
0.000000
0.000000
0.000000
0.000000
0.000000
0.000000
0.000000
0.000000
0.000000
0.000000
0.000000
0.000000
0.000000
0.000000
0.000000
0.000000
0.000000
0.000000
0.000000
0.000000
0.000000
0.000000
0.000000
0.000000
0.000000
0.000000
0.000000
0.000000
0.000000
0.000000
0.000000
0.000000
0.000000
0.000000
0.000000
0.000000
0.000000
0.000000
0.000000
0.000000
0.000000
0.000000
0.000000
0.000000
0.000000
0.000000
0.000000
0.000000
0.000000
0.000000
0.000000
0.000000
0.000000
0.000000
0.000000
0.000000
0.000000
0.000000
0.000000
0.000000
0.000000
0.000000
0.000000
0.000000
0.000000
0.000000
0.000000
0.000000
0.000000
0.000000
0.000000
0.000000
0.000000
0.000000
0.000000
0.000000
0.000000
0.000000
0.000000
0.000000
0.000000
0.000000
0.000000
0.000000
0.000000
0.000000
0.000000
0.000000
0.000000
0.000000
0.000000
0.000000
0.000000
0.000000
0.000000
0.000000
0.000000
0.000000
0.000000
0.000000
0.000000
0.000000
0.000000
0.000000
0.000000
0.000000
0.000000
0.000000
0.000000
0.000000
0.000000
0.000000
0.000000
0.000000
0.000000
0.000000
0.000000
0.000000
0.000000
0.000000
0.000000
0.000000
0.000000
0.000000
0.000000
0.000000
0.000000
0.000000
0.000000
0.000000
0.000000
0.000000
0.000000
0.000000
0.000000
0.000000
0.000000
0.000000
0.000000
0.000000
0.000000
0.000000
0.000000
0.000000
0.000000
0.000000
0.000000
0.000000
0.000000
0.000000
0.000000
0.000000
0.000000
0.000000
0.000000
0.000000
0.000000
0.000000
0.000000
0.000000
0.000000
0.000000
0.000000
0.000000
0.000000
0.000000
0.000000
0.000000
0.000000
0.000000
0.000000
0.000000
0.000000
0.000000
0.000000
0.000000
0.000000
0.000000
0.000000
0.000000
0.000000
0.000000
0.000000
0.000000
0.000000
0.000000
0.000000
0.000000
0.000000
0.000000
0.000000
0.000000
0.000000
0.000000
0.000000
0.000000
0.000000
0.000000
0.000000
0.000000
0.000000
0.000000
0.000000
0.000000
0.000000
0.000000
0.000000
0.000000
0.000000
0.000000
0.000000
0.000000
0.000000
0.000000
0.000000
0.000000
0.000000
0.000000
0.000000
0.000000
0.000000
0.000000
0.000000
0.000000
0.000000
0.000000
0.000000
0.000000
0.000000
0.000000
0.000000
0.000000

SCALARS sigma_zx FLOAT 1
LOOKUP_TABLE default
0.000000
0.000000
0.000000
0.000000
0.000000
0.000000
0.000000
0.000000
0.000000
0.000000
0.000000
0.000000
0.000000
0.000000
0.000000
0.000000
0.000000
0.000000
0.000000
0.000000
0.000000
0.000000
0.000000
0.000000
0.000000
0.000000
0.000000
0.000000
0.000000
0.000000
0.000000
0.000000
0.000000
0.000000
0.000000
0.000000
0.000000
0.000000
0.000000
0.000000
0.000000
0.000000
0.000000
0.000000
0.000000
0.000000
0.000000
0.000000
0.000000
0.000000
0.000000
0.000000
0.000000
0.000000
0.000000
0.000000
0.000000
0.000000
0.000000
0.000000
0.000000
0.000000
0.000000
0.000000
0.000000
0.000000
0.000000
0.000000
0.000000
0.000000
0.000000
0.000000
0.000000
0.000000
0.000000
0.000000
0.000000
0.000000
0.000000
0.000000
0.000000
0.000000
0.000000
0.000000
0.000000
0.000000
0.000000
0.000000
0.000000
0.000000
0.000000
0.000000
0.000000
0.000000
0.000000
0.000000
0.000000
0.000000
0.000000
0.000000
0.000000
0.000000
0.000000
0.000000
0.000000
0.000000
0.000000
0.000000
0.000000
0.000000
0.000000
0.000000
0.000000
0.000000
0.000000
0.000000
0.000000
0.000000
0.000000
0.000000
0.000000
0.000000
0.000000
0.000000
0.000000
0.000000
0.000000
0.000000
0.000000
0.000000
0.000000
0.000000
0.000000
0.000000
0.000000
0.000000
0.000000
0.000000
0.000000
0.000000
0.000000
0.000000
0.000000
0.000000
0.000000
0.000000
0.000000
0.000000
0.000000
0.000000
0.000000
0.000000
0.000000
0.000000
0.000000
0.000000
0.000000
0.000000
0.000000
0.000000
0.000000
0.000000
0.000000
0.000000
0.000000
0.000000
0.000000
0.000000
0.000000
0.000000
0.000000
0.000000
0.000000
0.000000
0.000000
0.000000
0.000000
0.000000
0.000000
0.000000
0.000000
0.000000
0.000000
0.000000
0.000000
0.000000
0.000000
0.000000
0.000000
0.000000
0.000000
0.000000
0.000000
0.000000
0.000000
0.000000
0.000000
0.000000
0.000000
0.000000
0.000000
0.000000
0.000000
0.000000
0.000000
0.000000
0.000000
0.000000
0.000000
0.000000
0.000000
0.000000
0.000000
0.000000
0.000000
0.000000
0.000000
0.000000
0.000000
0.000000
0.000000
0.000000
0.000000
0.000000
0.000000
0.000000
0.000000
0.000000
0.000000
0.000000
0.000000
0.000000
0.000000
0.000000
0.000000
0.000000
0.000000
0.000000
0.000000
0.000000
0.000000
0.000000
0.000000
0.000000
0.000000
0.000000
0.000000
0.000000
0.000000
0.000000
0.000000
0.000000
0.000000
0.000000
0.000000
0.000000

SCALARS u_x FLOAT 1
LOOKUP_TABLE default
0.000000
0.000000
0.000000
0.000000
0.000000
0.000000
0.000000
0.000000
0.000000
0.000000
0.000000
0.000000
0.000000
0.000000
0.000000
0.000000
0.000000
0.000000
0.000000
0.000000
0.000000
0.000000
0.000000
0.000000
0.000000
0.000000
0.000000
0.000000
0.000000
0.000000
0.000000
0.000000
0.000000
0.000000
0.000000
0.000000
0.000000
0.000000
0.000000
0.000000
0.000000
0.000000
0.000000
0.000000
0.000000
0.000000
0.000000
0.000000
0.000000
0.000000
0.000000
0.000000
0.000000
0.000000
0.000000
0.000000
0.000000
0.000000
0.000000
0.000000
0.000000
0.000000
0.000000
0.000000
0.000000
0.000000
0.000000
0.000000
0.000000
0.000000
0.000000
0.000000
0.000000
0.000000
0.000000
0.000000
0.000000
0.000000
0.000000
0.000000
0.000000
0.000000
0.000000
0.000000
0.000000
0.000000
0.000000
0.000000
0.000000
0.000000
0.000000
0.000000
0.000000
0.000000
0.000000
0.000000
0.000000
0.000000
0.000000
0.000000
0.000000
0.000000
0.000000
0.000000
0.000000
0.000000
0.000000
0.000000
0.000000
0.000000
0.000000
0.000000
0.000000
0.000000
0.000000
0.000000
0.000000
0.000000
0.000000
0.000000
0.000000
0.000000
0.000000
0.000000
0.000000
0.000000
0.000000
0.000000
0.000000
0.000000
0.000000
0.000000
0.000000
0.000000
0.000000
0.000000
0.000000
0.000000
0.000000
0.000000
0.000000
0.000000
0.000000
0.000000
0.000000
0.000000
0.000000
0.000000
0.000000
0.000000
0.000000
0.000000
0.000000
0.000000
0.000000
0.000000
0.000000
0.000000
0.000000
0.000000
0.000000
0.000000
0.000000
0.000000
0.000000
0.000000
0.000000
0.000000
0.000000
0.000000
0.000000
0.000000
0.000000
0.000000
0.000000
0.000000
0.000000
0.000000
0.000000
0.000000
0.000000
0.000000
0.000000
0.000000
0.000000
0.000000
0.000000
0.000000
0.000000
0.000000
0.000000
0.000000
0.000000
0.000000
0.000000
0.000000
0.000000
0.000000
0.000000
0.000000
0.000000
0.000000
0.000000
0.000000
0.000000
0.000000
0.000000
0.000000
0.000000
0.000000
0.000000
0.000000
0.000000
0.000000
0.000000
0.000000
0.000000
0.000000
0.000000
0.000000
0.000000
0.000000
0.000000
0.000000
0.000000
0.000000
0.000000
0.000000
0.000000
0.000000
0.000000
0.000000
0.000000
0.000000
0.000000
0.000000
0.000000
0.000000
0.000000
0.000000
0.000000
0.000000
0.000000
0.000000
0.000000
0.000000
0.000000
0.000000
0.000000
0.000000
0.000000
0.000000
0.000000
0.000000
0.000000
0.000000

SCALARS u_y FLOAT 1
LOOKUP_TABLE default
-0.057660
-0.172979
-0.057660
-0.172979
-0.287921
-0.401943
-0.287921
-0.401943
-0.515611
-0.628569
-0.515611
-0.628569
-0.740943
-0.852773
-0.740943
-0.852773
-0.963999
-1.074707
-0.963999
-1.074707
-1.184872
-1.294383
-1.184872
-1.294383
-1.403301
-1.511530
-1.403301
-1.511530
-1.619126
-1.726241
-1.619126
-1.726241
-1.832743
-1.938698
-1.832743
-1.938698
-2.043937
-2.148499
-2.043937
-2.148499
-2.252451
-2.355894
-2.252451
-2.355894
-2.458595
-2.560716
-2.458595
-2.560716
-2.662076
-2.762923
-2.662076
-2.762923
-2.863094
-2.962642
-2.863094
-2.962642
-3.061529
-3.159728
-3.061529
-3.159728
-3.257308
-3.354103
-3.257308
-3.354103
-3.450277
-3.545645
-3.450277
-3.545645
-3.640622
-3.734668
-3.640622
-3.734668
-3.828215
-3.920820
-3.828215
-3.920820
-4.012844
-4.104275
-4.012844
-4.104275
-4.194848
-4.284938
-4.194848
-4.284938
-4.373930
-4.462430
-4.373930
-4.462430
-4.550109
-4.637200
-4.550109
-4.637200
-4.723595
-4.809061
-4.723595
-4.809061
-4.893897
-4.977875
-4.893897
-4.977875
-5.061151
-5.143707
-5.061151
-5.143707
-5.225362
-5.306398
-5.225362
-5.306398
-5.386404
-5.465823
-5.386404
-5.465823
-5.544382
-5.622270
-5.544382
-5.622270
-5.699372
-5.775543
-5.699372
-5.775543
-5.850928
-5.925433
-5.850928
-5.925433
-5.999207
-6.072078
-5.999207
-6.072078
-6.144115
-6.215296
-6.144115
-6.215296
-6.285571
-6.354967
-6.285571
-6.354967
-6.423633
-6.491413
-6.423633
-6.491413
-6.558459
-6.624367
-6.558459
-6.624367
-6.689586
-6.753568
-6.689586
-6.753568
-6.816910
-6.879204
-6.816910
-6.879204
-6.940789
-7.001296
-6.940789
-7.001296
-7.060947
-7.119569
-7.060947
-7.119569
-7.177240
-7.233955
-7.177240
-7.233955
-7.289658
-7.344487
-7.289658
-7.344487
-7.398250
-7.451160
-7.398250
-7.451160
-7.502967
-7.553870
-7.502967
-7.553870
-7.603553
-7.652407
-7.603553
-7.652407
-7.699984
-7.746772
-7.699984
-7.746772
-7.792227
-7.836941
-7.792227
-7.836941
-7.880316
-7.922884
-7.880316
-7.922884
-7.964060
-8.004393
-7.964060
-8.004393
-8.043354
-8.081391
-8.043354
-8.081391
-8.118150
-8.153828
-8.118150
-8.153828
-8.188313
-8.221610
-8.188313
-8.221610
-8.253829
-8.284783
-8.253829
-8.284783
-8.314706
-8.343264
-8.314706
-8.343264
-8.370800
-8.396853
-8.370800
-8.396853
-8.421897
-8.445414
-8.421897
-8.445414
-8.467911
-8.488853
-8.467911
-8.488853
-8.508746
-8.527071
-8.508746
-8.527071
-8.544303
-8.559962
-8.544303
-8.559962
-8.574478
-8.587419
-8.574478
-8.587419
-8.599161
-8.609325
-8.599161
-8.609325
-8.618235
-8.625590
-8.618235
-8.625590
-8.631626
-8.635888
-8.631626
-8.635888
-8.638999
-8.640918
-8.638999
-8.640918

