# vtk DataFile Version 2.0
MATLAB generated vtk file, WMC
ASCII
DATASET UNSTRUCTURED_GRID
POINTS 256 double
0.195312 0.103778 0.000000 
0.195312 0.311334 0.000000 
0.585938 0.103778 0.000000 
0.585938 0.311334 0.000000 
0.195312 0.519176 0.000000 
0.195312 0.727959 0.000000 
0.585938 0.519176 0.000000 
0.585938 0.727959 0.000000 
0.195312 0.937459 0.000000 
0.195312 1.147541 0.000000 
0.585938 0.937459 0.000000 
0.585938 1.147541 0.000000 
0.195312 1.358241 0.000000 
0.195312 1.569685 0.000000 
0.585938 1.358241 0.000000 
0.585938 1.569685 0.000000 
0.195312 1.781751 0.000000 
0.195312 1.994490 0.000000 
0.585938 1.781751 0.000000 
0.585938 1.994490 0.000000 
0.195312 2.207923 0.000000 
0.195312 2.422098 0.000000 
0.585938 2.207923 0.000000 
0.585938 2.422098 0.000000 
0.195312 2.636877 0.000000 
0.195312 2.852369 0.000000 
0.585938 2.636877 0.000000 
0.585938 2.852369 0.000000 
0.195312 3.068576 0.000000 
0.195312 3.285512 0.000000 
0.585938 3.068576 0.000000 
0.585938 3.285512 0.000000 
0.195312 3.503123 0.000000 
0.195312 3.721456 0.000000 
0.585938 3.503123 0.000000 
0.585938 3.721456 0.000000 
0.195312 3.940539 0.000000 
0.195312 4.160321 0.000000 
0.585938 3.940539 0.000000 
0.585938 4.160321 0.000000 
0.195312 4.380872 0.000000 
0.195312 4.602164 0.000000 
0.585938 4.380872 0.000000 
0.585938 4.602164 0.000000 
0.195312 4.824239 0.000000 
0.195312 5.046970 0.000000 
0.585938 4.824239 0.000000 
0.585938 5.046970 0.000000 
0.195312 5.270548 0.000000 
0.195312 5.494936 0.000000 
0.585938 5.270548 0.000000 
0.585938 5.494936 0.000000 
0.195312 5.720145 0.000000 
0.195312 5.946036 0.000000 
0.585938 5.720145 0.000000 
0.585938 5.946036 0.000000 
0.195312 6.172784 0.000000 
0.195312 6.400264 0.000000 
0.585938 6.172784 0.000000 
0.585938 6.400264 0.000000 
0.195312 6.628496 0.000000 
0.195312 6.857571 0.000000 
0.585938 6.628496 0.000000 
0.585938 6.857571 0.000000 
0.195312 7.087532 0.000000 
0.195312 7.318406 0.000000 
0.585938 7.087532 0.000000 
0.585938 7.318406 0.000000 
0.195312 7.549957 0.000000 
0.195312 7.782538 0.000000 
0.585938 7.549957 0.000000 
0.585938 7.782538 0.000000 
0.195312 8.015848 0.000000 
0.195312 8.250100 0.000000 
0.585938 8.015848 0.000000 
0.585938 8.250100 0.000000 
0.195312 8.485165 0.000000 
0.195312 8.721141 0.000000 
0.585938 8.485165 0.000000 
0.585938 8.721141 0.000000 
0.195312 8.958108 0.000000 
0.195312 9.195769 0.000000 
0.585938 8.958108 0.000000 
0.585938 9.195769 0.000000 
0.195312 9.434539 0.000000 
0.195312 9.674017 0.000000 
0.585938 9.434539 0.000000 
0.585938 9.674017 0.000000 
0.195312 9.914637 0.000000 
0.195312 10.156088 0.000000 
0.585938 9.914637 0.000000 
0.585938 10.156088 0.000000 
0.195312 10.398447 0.000000 
0.195312 10.641786 0.000000 
0.585938 10.398447 0.000000 
0.585938 10.641786 0.000000 
0.195312 10.886066 0.000000 
0.195312 11.131495 0.000000 
0.585938 10.886066 0.000000 
0.585938 11.131495 0.000000 
0.195312 11.377784 0.000000 
0.195312 11.625150 0.000000 
0.585938 11.377784 0.000000 
0.585938 11.625150 0.000000 
0.195312 11.873561 0.000000 
0.195312 12.122780 0.000000 
0.585938 11.873561 0.000000 
0.585938 12.122780 0.000000 
0.195312 12.373298 0.000000 
0.195312 12.624613 0.000000 
0.585938 12.373298 0.000000 
0.585938 12.624613 0.000000 
0.195312 12.877181 0.000000 
0.195312 13.130775 0.000000 
0.585938 12.877181 0.000000 
0.585938 13.130775 0.000000 
0.195312 13.385362 0.000000 
0.195312 13.641178 0.000000 
0.585938 13.385362 0.000000 
0.585938 13.641178 0.000000 
0.195312 13.897957 0.000000 
0.195312 14.156021 0.000000 
0.585938 13.897957 0.000000 
0.585938 14.156021 0.000000 
0.195312 14.415118 0.000000 
0.195312 14.675355 0.000000 
0.585938 14.415118 0.000000 
0.585938 14.675355 0.000000 
0.195312 14.936906 0.000000 
0.195312 15.199410 0.000000 
0.585938 14.936906 0.000000 
0.585938 15.199410 0.000000 
0.195312 15.463342 0.000000 
0.195312 15.728379 0.000000 
0.585938 15.463342 0.000000 
0.585938 15.728379 0.000000 
0.195312 15.994489 0.000000 
0.195312 16.262112 0.000000 
0.585938 15.994489 0.000000 
0.585938 16.262112 0.000000 
0.195312 16.530691 0.000000 
0.195312 16.800837 0.000000 
0.585938 16.530691 0.000000 
0.585938 16.800837 0.000000 
0.195312 17.072067 0.000000 
0.195312 17.344669 0.000000 
0.585938 17.072067 0.000000 
0.585938 17.344669 0.000000 
0.195312 17.618610 0.000000 
0.195312 17.893718 0.000000 
0.585938 17.618610 0.000000 
0.585938 17.893718 0.000000 
0.195312 18.170311 0.000000 
0.195312 18.448283 0.000000 
0.585938 18.170311 0.000000 
0.585938 18.448283 0.000000 
0.195312 18.727507 0.000000 
0.195312 19.008423 0.000000 
0.585938 18.727507 0.000000 
0.585938 19.008423 0.000000 
0.195312 19.290534 0.000000 
0.195312 19.574348 0.000000 
0.585938 19.290534 0.000000 
0.585938 19.574348 0.000000 
0.195312 19.859444 0.000000 
0.195312 20.146033 0.000000 
0.585938 19.859444 0.000000 
0.585938 20.146033 0.000000 
0.195312 20.434373 0.000000 
0.195312 20.723735 0.000000 
0.585938 20.434373 0.000000 
0.585938 20.723735 0.000000 
0.195312 21.015166 0.000000 
0.195312 21.307851 0.000000 
0.585938 21.015166 0.000000 
0.585938 21.307851 0.000000 
0.195312 21.602493 0.000000 
0.195312 21.898645 0.000000 
0.585938 21.602493 0.000000 
0.585938 21.898645 0.000000 
0.195312 22.196296 0.000000 
0.195312 22.495676 0.000000 
0.585938 22.196296 0.000000 
0.585938 22.495676 0.000000 
0.195312 22.796759 0.000000 
0.195312 23.099661 0.000000 
0.585938 22.796759 0.000000 
0.585938 23.099661 0.000000 
0.195312 23.404553 0.000000 
0.195312 23.710646 0.000000 
0.585938 23.404553 0.000000 
0.585938 23.710646 0.000000 
0.195312 24.019180 0.000000 
0.195312 24.329081 0.000000 
0.585938 24.019180 0.000000 
0.585938 24.329081 0.000000 
0.195312 24.641474 0.000000 
0.195312 24.955500 0.000000 
0.585938 24.641474 0.000000 
0.585938 24.955500 0.000000 
0.195312 25.271239 0.000000 
0.195312 25.589105 0.000000 
0.585938 25.271239 0.000000 
0.585938 25.589105 0.000000 
0.195312 25.908746 0.000000 
0.195312 26.231052 0.000000 
0.585938 25.908746 0.000000 
0.585938 26.231052 0.000000 
0.195312 26.555065 0.000000 
0.195312 26.881441 0.000000 
0.585938 26.555065 0.000000 
0.585938 26.881441 0.000000 
0.195312 27.209783 0.000000 
0.195312 27.540304 0.000000 
0.585938 27.209783 0.000000 
0.585938 27.540304 0.000000 
0.195312 27.873282 0.000000 
0.195312 28.208380 0.000000 
0.585938 27.873282 0.000000 
0.585938 28.208380 0.000000 
0.195312 28.546185 0.000000 
0.195312 28.886262 0.000000 
0.585938 28.546185 0.000000 
0.585938 28.886262 0.000000 
0.195312 29.228914 0.000000 
0.195312 29.574033 0.000000 
0.585938 29.228914 0.000000 
0.585938 29.574033 0.000000 
0.195312 29.921519 0.000000 
0.195312 30.271704 0.000000 
0.585938 29.921519 0.000000 
0.585938 30.271704 0.000000 
0.195312 30.624263 0.000000 
0.195312 30.980056 0.000000 
0.585938 30.624263 0.000000 
0.585938 30.980056 0.000000 
0.195312 31.338192 0.000000 
0.195312 31.699731 0.000000 
0.585938 31.338192 0.000000 
0.585938 31.699731 0.000000 
0.195312 32.063725 0.000000 
0.195312 32.431299 0.000000 
0.585938 32.063725 0.000000 
0.585938 32.431299 0.000000 
0.195312 32.801405 0.000000 
0.195312 33.175108 0.000000 
0.585938 32.801405 0.000000 
0.585938 33.175108 0.000000 
0.195312 33.551579 0.000000 
0.195312 33.932521 0.000000 
0.585938 33.551579 0.000000 
0.585938 33.932521 0.000000 
0.195312 34.315756 0.000000 
0.195312 34.701466 0.000000 
0.585938 34.315756 0.000000 
0.585938 34.701466 0.000000 

POINT_DATA 256
SCALARS sigma_xx FLOAT 1
LOOKUP_TABLE default
0.000000
0.000000
0.000000
0.000000
0.000000
-0.000000
0.000000
-0.000000
0.000000
0.000000
0.000000
0.000000
0.000000
0.000000
0.000000
0.000000
0.000000
-0.000000
0.000000
-0.000000
-0.000000
0.000000
-0.000000
0.000000
-0.000000
-0.000000
-0.000000
-0.000000
0.000000
0.000000
0.000000
0.000000
-0.000000
0.000000
-0.000000
0.000000
0.000000
-0.000000
0.000000
-0.000000
-0.000000
-0.000000
-0.000000
-0.000000
-0.000000
-0.000000
-0.000000
-0.000000
-0.000000
-0.000000
-0.000000
-0.000000
-0.000000
-0.000000
-0.000000
-0.000000
-0.000000
-0.000000
-0.000000
-0.000000
-0.000000
-0.000000
-0.000000
-0.000000
-0.000000
-0.000000
-0.000000
-0.000000
-0.000000
-0.000000
-0.000000
-0.000000
-0.000000
-0.000000
-0.000000
-0.000000
0.000000
0.000000
0.000000
0.000000
0.000000
-0.000000
0.000000
-0.000000
0.000000
-0.000000
0.000000
-0.000000
-0.000000
-0.000000
-0.000000
-0.000000
0.000000
0.000000
0.000000
0.000000
-0.000000
-0.000000
-0.000000
-0.000000
0.000000
-0.000000
0.000000
-0.000000
0.000000
-0.000000
0.000000
0.000000
-0.000000
-0.000000
-0.000000
-0.000000
-0.000000
-0.000000
-0.000000
0.000000
0.000000
0.000000
0.000000
0.000000
-0.000000
-0.000000
-0.000000
-0.000000
-0.000000
-0.000000
-0.000000
-0.000000
-0.000000
-0.000000
-0.000000
-0.000000
-0.000000
-0.000000
-0.000000
-0.000000
0.000000
-0.000000
-0.000000
-0.000000
-0.000000
0.000000
-0.000000
0.000000
-0.000000
-0.000000
-0.000000
-0.000000
0.000000
-0.000000
-0.000000
-0.000000
0.000000
0.000000
0.000000
0.000000
-0.000000
-0.000000
-0.000000
-0.000000
-0.000000
0.000000
0.000000
0.000000
-0.000000
0.000000
-0.000000
0.000000
-0.000000
-0.000000
-0.000000
-0.000000
0.000000
-0.000000
0.000000
-0.000000
-0.000000
-0.000000
0.000000
-0.000000
-0.000000
0.000000
-0.000000
0.000000
-0.000000
0.000000
-0.000000
0.000000
-0.000000
-0.000000
-0.000000
-0.000000
-0.000000
-0.000000
-0.000000
-0.000000
-0.000000
-0.000000
-0.000000
-0.000000
-0.000000
0.000000
-0.000000
0.000000
-0.000000
0.000000
0.000000
0.000000
0.000000
0.000000
0.000000
0.000000
0.000000
0.000000
0.000000
-0.000000
-0.000000
-0.000000
-0.000000
-0.000000
-0.000000
-0.000000
-0.000000
-0.000000
-0.000000
0.000000
-0.000000
0.000000
-0.000000
-0.000000
-0.000000
-0.000000
-0.000000
-0.000000
-0.000000
-0.000000
-0.000000
-0.000000
-0.000000
-0.000000
-0.000000
-0.000000
-0.000000
-0.000000
-0.000000
-0.000000
-0.000000
-0.000000
0.000000
-0.000000
-0.000000
-0.000000
0.000000
0.000000
0.000000
0.000000

SCALARS sigma_yy FLOAT 1
LOOKUP_TABLE default
-11900.887669
-11900.887669
-11900.887669
-11900.887669
-11789.550548
-11664.401765
-11789.550548
-11664.401765
-11570.144751
-11497.561760
-11570.144751
-11497.561760
-11385.932048
-11297.424620
-11385.932048
-11297.424620
-11203.180361
-11115.004367
-11203.180361
-11115.004367
-11005.911762
-10924.198207
-11005.911762
-10924.198207
-10827.886774
-10740.313958
-10827.886774
-10740.313958
-10631.874792
-10549.859220
-10631.874792
-10549.859220
-10448.899705
-10364.761909
-10448.899705
-10364.761909
-10261.027425
-10181.072926
-10261.027425
-10181.072926
-10072.434724
-9986.576070
-10072.434724
-9986.576070
-9885.047317
-9811.180825
-9885.047317
-9811.180825
-9693.391121
-9608.628285
-9693.391121
-9608.628285
-9502.005703
-9427.696227
-9502.005703
-9427.696227
-9319.560301
-9251.026221
-9319.560301
-9251.026221
-9138.416118
-9057.869991
-9138.416118
-9057.869991
-8944.942182
-8862.496156
-8944.942182
-8862.496156
-8761.217892
-8672.362989
-8761.217892
-8672.362989
-8580.267499
-8481.354943
-8580.267499
-8481.354943
-8392.467408
-8292.452724
-8392.467408
-8292.452724
-8198.880712
-8112.870080
-8198.880712
-8112.870080
-8016.113237
-7930.971577
-8016.113237
-7930.971577
-7810.951963
-7749.466328
-7810.951963
-7749.466328
-7637.411183
-7555.155421
-7637.411183
-7555.155421
-7452.405180
-7355.696863
-7452.405180
-7355.696863
-7264.701385
-7167.470142
-7264.701385
-7167.470142
-7077.460048
-6991.833178
-7077.460048
-6991.833178
-6886.597958
-6811.313609
-6886.597958
-6811.313609
-6684.664760
-6621.787900
-6684.664760
-6621.787900
-6507.230438
-6428.635643
-6507.230438
-6428.635643
-6326.036422
-6234.469692
-6326.036422
-6234.469692
-6136.829805
-6051.221435
-6136.829805
-6051.221435
-5944.563242
-5872.780349
-5944.563242
-5872.780349
-5743.737969
-5685.865605
-5743.737969
-5685.865605
-5568.069576
-5488.832425
-5568.069576
-5488.832425
-5393.198498
-5289.860718
-5393.198498
-5289.860718
-5204.841629
-5108.610945
-5204.841629
-5108.610945
-5016.834323
-4933.505575
-5016.834323
-4933.505575
-4821.527654
-4741.132024
-4821.527654
-4741.132024
-4640.296292
-4543.076165
-4640.296292
-4543.076165
-4459.458842
-4347.710638
-4459.458842
-4347.710638
-4275.984154
-4158.789880
-4275.984154
-4158.789880
-4085.161879
-3991.571252
-4085.161879
-3991.571252
-3883.767530
-3800.481525
-3883.767530
-3800.481525
-3686.478249
-3614.069830
-3686.478249
-3614.069830
-3520.253552
-3426.912428
-3520.253552
-3426.912428
-3329.903855
-3226.540988
-3329.903855
-3226.540988
-3137.878317
-3060.617451
-3137.878317
-3060.617451
-2938.087325
-2875.640382
-2938.087325
-2875.640382
-2732.623468
-2691.212184
-2732.623468
-2691.212184
-2567.864113
-2507.307359
-2567.864113
-2507.307359
-2380.999008
-2298.009645
-2380.999008
-2298.009645
-2200.624904
-2108.480813
-2200.624904
-2108.480813
-2018.652235
-1925.966144
-2018.652235
-1925.966144
-1824.730755
-1741.348434
-1824.730755
-1741.348434
-1626.655143
-1554.920830
-1626.655143
-1554.920830
-1435.695880
-1371.378194
-1435.695880
-1371.378194
-1255.582744
-1189.969006
-1255.582744
-1189.969006
-1070.388588
-994.698625
-1070.388588
-994.698625
-885.821594
-801.675017
-885.821594
-801.675017
-699.502298
-609.157634
-699.502298
-609.157634
-516.426569
-422.974820
-516.426569
-422.974820
-324.465851
-214.048855
-324.465851
-214.048855
-166.123519
-34.213203
-166.123519
-34.213203

SCALARS sigma_zz FLOAT 1
LOOKUP_TABLE default
0.000000
0.000000
0.000000
0.000000
0.000000
0.000000
0.000000
0.000000
0.000000
0.000000
0.000000
0.000000
0.000000
0.000000
0.000000
0.000000
0.000000
0.000000
0.000000
0.000000
0.000000
0.000000
0.000000
0.000000
0.000000
0.000000
0.000000
0.000000
0.000000
0.000000
0.000000
0.000000
0.000000
0.000000
0.000000
0.000000
0.000000
0.000000
0.000000
0.000000
0.000000
0.000000
0.000000
0.000000
0.000000
0.000000
0.000000
0.000000
0.000000
0.000000
0.000000
0.000000
0.000000
0.000000
0.000000
0.000000
0.000000
0.000000
0.000000
0.000000
0.000000
0.000000
0.000000
0.000000
0.000000
0.000000
0.000000
0.000000
0.000000
0.000000
0.000000
0.000000
0.000000
0.000000
0.000000
0.000000
0.000000
0.000000
0.000000
0.000000
0.000000
0.000000
0.000000
0.000000
0.000000
0.000000
0.000000
0.000000
0.000000
0.000000
0.000000
0.000000
0.000000
0.000000
0.000000
0.000000
0.000000
0.000000
0.000000
0.000000
0.000000
0.000000
0.000000
0.000000
0.000000
0.000000
0.000000
0.000000
0.000000
0.000000
0.000000
0.000000
0.000000
0.000000
0.000000
0.000000
0.000000
0.000000
0.000000
0.000000
0.000000
0.000000
0.000000
0.000000
0.000000
0.000000
0.000000
0.000000
0.000000
0.000000
0.000000
0.000000
0.000000
0.000000
0.000000
0.000000
0.000000
0.000000
0.000000
0.000000
0.000000
0.000000
0.000000
0.000000
0.000000
0.000000
0.000000
0.000000
0.000000
0.000000
0.000000
0.000000
0.000000
0.000000
0.000000
0.000000
0.000000
0.000000
0.000000
0.000000
0.000000
0.000000
0.000000
0.000000
0.000000
0.000000
0.000000
0.000000
0.000000
0.000000
0.000000
0.000000
0.000000
0.000000
0.000000
0.000000
0.000000
0.000000
0.000000
0.000000
0.000000
0.000000
0.000000
0.000000
0.000000
0.000000
0.000000
0.000000
0.000000
0.000000
0.000000
0.000000
0.000000
0.000000
0.000000
0.000000
0.000000
0.000000
0.000000
0.000000
0.000000
0.000000
0.000000
0.000000
0.000000
0.000000
0.000000
0.000000
0.000000
0.000000
0.000000
0.000000
0.000000
0.000000
0.000000
0.000000
0.000000
0.000000
0.000000
0.000000
0.000000
0.000000
0.000000
0.000000
0.000000
0.000000
0.000000
0.000000
0.000000
0.000000
0.000000
0.000000
0.000000
0.000000
0.000000
0.000000
0.000000
0.000000
0.000000
0.000000
0.000000
0.000000
0.000000
0.000000
0.000000
0.000000
0.000000
0.000000
0.000000
0.000000
0.000000
0.000000
0.000000
0.000000
0.000000
0.000000

SCALARS sigma_xy FLOAT 1
LOOKUP_TABLE default
0.000000
0.000000
0.000000
0.000000
0.000000
-0.000000
0.000000
-0.000000
0.000000
0.000000
0.000000
0.000000
0.000000
0.000000
0.000000
0.000000
0.000000
-0.000000
0.000000
-0.000000
-0.000000
0.000000
-0.000000
0.000000
0.000000
0.000000
0.000000
0.000000
0.000000
0.000000
0.000000
0.000000
-0.000000
0.000000
-0.000000
0.000000
0.000000
0.000000
0.000000
0.000000
0.000000
0.000000
0.000000
0.000000
-0.000000
-0.000000
-0.000000
-0.000000
-0.000000
0.000000
-0.000000
0.000000
0.000000
0.000000
0.000000
0.000000
0.000000
-0.000000
0.000000
-0.000000
-0.000000
-0.000000
-0.000000
-0.000000
-0.000000
0.000000
-0.000000
0.000000
0.000000
0.000000
0.000000
0.000000
0.000000
0.000000
0.000000
0.000000
0.000000
0.000000
0.000000
0.000000
0.000000
-0.000000
0.000000
-0.000000
0.000000
0.000000
0.000000
0.000000
0.000000
0.000000
0.000000
0.000000
0.000000
0.000000
0.000000
0.000000
-0.000000
-0.000000
-0.000000
-0.000000
0.000000
0.000000
0.000000
0.000000
0.000000
0.000000
0.000000
0.000000
-0.000000
0.000000
-0.000000
0.000000
0.000000
0.000000
0.000000
0.000000
0.000000
0.000000
0.000000
0.000000
0.000000
0.000000
0.000000
0.000000
0.000000
-0.000000
0.000000
-0.000000
-0.000000
-0.000000
-0.000000
-0.000000
0.000000
0.000000
0.000000
0.000000
0.000000
-0.000000
-0.000000
-0.000000
0.000000
0.000000
0.000000
0.000000
-0.000000
-0.000000
-0.000000
-0.000000
0.000000
0.000000
0.000000
0.000000
0.000000
0.000000
0.000000
0.000000
0.000000
0.000000
0.000000
0.000000
0.000000
0.000000
0.000000
0.000000
-0.000000
0.000000
-0.000000
0.000000
-0.000000
-0.000000
-0.000000
-0.000000
0.000000
0.000000
0.000000
0.000000
0.000000
-0.000000
0.000000
-0.000000
-0.000000
0.000000
-0.000000
0.000000
-0.000000
0.000000
-0.000000
0.000000
0.000000
0.000000
0.000000
0.000000
-0.000000
-0.000000
-0.000000
-0.000000
-0.000000
0.000000
-0.000000
0.000000
-0.000000
0.000000
0.000000
0.000000
0.000000
0.000000
0.000000
0.000000
0.000000
0.000000
0.000000
0.000000
0.000000
0.000000
0.000000
0.000000
0.000000
0.000000
0.000000
0.000000
-0.000000
-0.000000
-0.000000
-0.000000
-0.000000
0.000000
-0.000000
0.000000
0.000000
-0.000000
0.000000
-0.000000
-0.000000
-0.000000
-0.000000
-0.000000
0.000000
0.000000
0.000000
0.000000
0.000000
0.000000
0.000000
0.000000
-0.000000
-0.000000
-0.000000
-0.000000
0.000000
-0.000000
-0.000000
-0.000000
0.000000
0.000000
0.000000
0.000000

SCALARS sigma_yz FLOAT 1
LOOKUP_TABLE default
0.000000
0.000000
0.000000
0.000000
0.000000
0.000000
0.000000
0.000000
0.000000
0.000000
0.000000
0.000000
0.000000
0.000000
0.000000
0.000000
0.000000
0.000000
0.000000
0.000000
0.000000
0.000000
0.000000
0.000000
0.000000
0.000000
0.000000
0.000000
0.000000
0.000000
0.000000
0.000000
0.000000
0.000000
0.000000
0.000000
0.000000
0.000000
0.000000
0.000000
0.000000
0.000000
0.000000
0.000000
0.000000
0.000000
0.000000
0.000000
0.000000
0.000000
0.000000
0.000000
0.000000
0.000000
0.000000
0.000000
0.000000
0.000000
0.000000
0.000000
0.000000
0.000000
0.000000
0.000000
0.000000
0.000000
0.000000
0.000000
0.000000
0.000000
0.000000
0.000000
0.000000
0.000000
0.000000
0.000000
0.000000
0.000000
0.000000
0.000000
0.000000
0.000000
0.000000
0.000000
0.000000
0.000000
0.000000
0.000000
0.000000
0.000000
0.000000
0.000000
0.000000
0.000000
0.000000
0.000000
0.000000
0.000000
0.000000
0.000000
0.000000
0.000000
0.000000
0.000000
0.000000
0.000000
0.000000
0.000000
0.000000
0.000000
0.000000
0.000000
0.000000
0.000000
0.000000
0.000000
0.000000
0.000000
0.000000
0.000000
0.000000
0.000000
0.000000
0.000000
0.000000
0.000000
0.000000
0.000000
0.000000
0.000000
0.000000
0.000000
0.000000
0.000000
0.000000
0.000000
0.000000
0.000000
0.000000
0.000000
0.000000
0.000000
0.000000
0.000000
0.000000
0.000000
0.000000
0.000000
0.000000
0.000000
0.000000
0.000000
0.000000
0.000000
0.000000
0.000000
0.000000
0.000000
0.000000
0.000000
0.000000
0.000000
0.000000
0.000000
0.000000
0.000000
0.000000
0.000000
0.000000
0.000000
0.000000
0.000000
0.000000
0.000000
0.000000
0.000000
0.000000
0.000000
0.000000
0.000000
0.000000
0.000000
0.000000
0.000000
0.000000
0.000000
0.000000
0.000000
0.000000
0.000000
0.000000
0.000000
0.000000
0.000000
0.000000
0.000000
0.000000
0.000000
0.000000
0.000000
0.000000
0.000000
0.000000
0.000000
0.000000
0.000000
0.000000
0.000000
0.000000
0.000000
0.000000
0.000000
0.000000
0.000000
0.000000
0.000000
0.000000
0.000000
0.000000
0.000000
0.000000
0.000000
0.000000
0.000000
0.000000
0.000000
0.000000
0.000000
0.000000
0.000000
0.000000
0.000000
0.000000
0.000000
0.000000
0.000000
0.000000
0.000000
0.000000
0.000000
0.000000
0.000000
0.000000
0.000000
0.000000
0.000000
0.000000
0.000000
0.000000
0.000000
0.000000
0.000000
0.000000
0.000000
0.000000
0.000000

SCALARS sigma_zx FLOAT 1
LOOKUP_TABLE default
0.000000
0.000000
0.000000
0.000000
0.000000
0.000000
0.000000
0.000000
0.000000
0.000000
0.000000
0.000000
0.000000
0.000000
0.000000
0.000000
0.000000
0.000000
0.000000
0.000000
0.000000
0.000000
0.000000
0.000000
0.000000
0.000000
0.000000
0.000000
0.000000
0.000000
0.000000
0.000000
0.000000
0.000000
0.000000
0.000000
0.000000
0.000000
0.000000
0.000000
0.000000
0.000000
0.000000
0.000000
0.000000
0.000000
0.000000
0.000000
0.000000
0.000000
0.000000
0.000000
0.000000
0.000000
0.000000
0.000000
0.000000
0.000000
0.000000
0.000000
0.000000
0.000000
0.000000
0.000000
0.000000
0.000000
0.000000
0.000000
0.000000
0.000000
0.000000
0.000000
0.000000
0.000000
0.000000
0.000000
0.000000
0.000000
0.000000
0.000000
0.000000
0.000000
0.000000
0.000000
0.000000
0.000000
0.000000
0.000000
0.000000
0.000000
0.000000
0.000000
0.000000
0.000000
0.000000
0.000000
0.000000
0.000000
0.000000
0.000000
0.000000
0.000000
0.000000
0.000000
0.000000
0.000000
0.000000
0.000000
0.000000
0.000000
0.000000
0.000000
0.000000
0.000000
0.000000
0.000000
0.000000
0.000000
0.000000
0.000000
0.000000
0.000000
0.000000
0.000000
0.000000
0.000000
0.000000
0.000000
0.000000
0.000000
0.000000
0.000000
0.000000
0.000000
0.000000
0.000000
0.000000
0.000000
0.000000
0.000000
0.000000
0.000000
0.000000
0.000000
0.000000
0.000000
0.000000
0.000000
0.000000
0.000000
0.000000
0.000000
0.000000
0.000000
0.000000
0.000000
0.000000
0.000000
0.000000
0.000000
0.000000
0.000000
0.000000
0.000000
0.000000
0.000000
0.000000
0.000000
0.000000
0.000000
0.000000
0.000000
0.000000
0.000000
0.000000
0.000000
0.000000
0.000000
0.000000
0.000000
0.000000
0.000000
0.000000
0.000000
0.000000
0.000000
0.000000
0.000000
0.000000
0.000000
0.000000
0.000000
0.000000
0.000000
0.000000
0.000000
0.000000
0.000000
0.000000
0.000000
0.000000
0.000000
0.000000
0.000000
0.000000
0.000000
0.000000
0.000000
0.000000
0.000000
0.000000
0.000000
0.000000
0.000000
0.000000
0.000000
0.000000
0.000000
0.000000
0.000000
0.000000
0.000000
0.000000
0.000000
0.000000
0.000000
0.000000
0.000000
0.000000
0.000000
0.000000
0.000000
0.000000
0.000000
0.000000
0.000000
0.000000
0.000000
0.000000
0.000000
0.000000
0.000000
0.000000
0.000000
0.000000
0.000000
0.000000
0.000000
0.000000
0.000000
0.000000
0.000000
0.000000
0.000000
0.000000
0.000000

SCALARS u_x FLOAT 1
LOOKUP_TABLE default
0.000000
0.000000
0.000000
0.000000
0.000000
0.000000
0.000000
0.000000
0.000000
0.000000
0.000000
0.000000
0.000000
0.000000
0.000000
0.000000
0.000000
0.000000
0.000000
0.000000
0.000000
0.000000
0.000000
0.000000
0.000000
0.000000
0.000000
0.000000
0.000000
0.000000
0.000000
0.000000
0.000000
0.000000
0.000000
0.000000
0.000000
0.000000
0.000000
0.000000
0.000000
0.000000
0.000000
0.000000
0.000000
0.000000
0.000000
0.000000
0.000000
0.000000
0.000000
0.000000
0.000000
0.000000
0.000000
0.000000
0.000000
0.000000
0.000000
0.000000
0.000000
0.000000
0.000000
0.000000
0.000000
0.000000
0.000000
0.000000
0.000000
0.000000
0.000000
0.000000
0.000000
0.000000
0.000000
0.000000
0.000000
0.000000
0.000000
0.000000
0.000000
0.000000
0.000000
0.000000
0.000000
0.000000
0.000000
0.000000
0.000000
0.000000
0.000000
0.000000
0.000000
0.000000
0.000000
0.000000
0.000000
0.000000
0.000000
0.000000
0.000000
0.000000
0.000000
0.000000
0.000000
0.000000
0.000000
0.000000
0.000000
0.000000
0.000000
0.000000
0.000000
0.000000
0.000000
0.000000
0.000000
0.000000
0.000000
0.000000
0.000000
0.000000
0.000000
0.000000
0.000000
0.000000
0.000000
0.000000
0.000000
0.000000
0.000000
0.000000
0.000000
0.000000
0.000000
0.000000
0.000000
0.000000
0.000000
0.000000
0.000000
0.000000
0.000000
0.000000
0.000000
0.000000
0.000000
0.000000
0.000000
0.000000
0.000000
0.000000
0.000000
0.000000
0.000000
0.000000
0.000000
0.000000
0.000000
0.000000
0.000000
0.000000
0.000000
0.000000
0.000000
0.000000
0.000000
0.000000
0.000000
0.000000
0.000000
0.000000
0.000000
0.000000
0.000000
0.000000
0.000000
0.000000
0.000000
0.000000
0.000000
0.000000
0.000000
0.000000
0.000000
0.000000
0.000000
0.000000
0.000000
0.000000
0.000000
0.000000
0.000000
0.000000
0.000000
0.000000
0.000000
0.000000
0.000000
0.000000
0.000000
0.000000
0.000000
0.000000
0.000000
0.000000
0.000000
0.000000
0.000000
0.000000
0.000000
0.000000
0.000000
0.000000
0.000000
0.000000
0.000000
0.000000
0.000000
0.000000
0.000000
0.000000
0.000000
0.000000
0.000000
0.000000
0.000000
0.000000
0.000000
0.000000
0.000000
0.000000
0.000000
0.000000
0.000000
0.000000
0.000000
0.000000
0.000000
0.000000
0.000000
0.000000
0.000000
0.000000
0.000000
0.000000
0.000000
0.000000
0.000000
0.000000
0.000000
0.000000
0.000000
0.000000
0.000000
0.000000

SCALARS u_y FLOAT 1
LOOKUP_TABLE default
-0.091534
-0.274603
-0.091534
-0.274603
-0.457386
-0.639228
-0.457386
-0.639228
-0.820353
-1.000897
-0.820353
-1.000897
-1.180822
-1.360002
-1.180822
-1.360002
-1.538562
-1.716447
-1.538562
-1.716447
-1.893640
-2.070090
-1.893640
-2.070090
-2.245936
-2.421068
-2.245936
-2.421068
-2.595487
-2.769175
-2.595487
-2.769175
-2.942190
-3.114481
-2.942190
-3.114481
-3.286024
-3.456867
-3.286024
-3.456867
-3.626940
-3.796274
-3.626940
-3.796274
-3.964824
-4.132717
-3.964824
-4.132717
-4.299765
-4.466002
-4.299765
-4.466002
-4.631418
-4.796152
-4.631418
-4.796152
-4.960028
-5.123173
-4.960028
-5.123173
-5.285566
-5.447117
-5.285566
-5.447117
-5.607780
-5.767532
-5.607780
-5.767532
-5.926606
-6.084650
-5.926606
-6.084650
-6.241965
-6.398337
-6.241965
-6.398337
-6.553897
-6.708546
-6.553897
-6.708546
-6.862204
-7.015169
-6.862204
-7.015169
-7.167023
-7.318170
-7.167023
-7.318170
-7.468175
-7.617349
-7.468175
-7.617349
-7.765615
-7.912901
-7.765615
-7.912901
-8.059247
-8.204442
-8.059247
-8.204442
-8.348778
-8.492037
-8.348778
-8.492037
-8.634252
-8.775657
-8.634252
-8.775657
-8.915764
-9.055074
-8.915764
-9.055074
-9.193131
-9.330162
-9.193131
-9.330162
-9.466200
-9.601010
-9.466200
-9.601010
-9.734856
-9.867416
-9.734856
-9.867416
-9.998945
-10.129333
-9.998945
-10.129333
-10.258406
-10.386527
-10.258406
-10.386527
-10.513220
-10.638809
-10.513220
-10.638809
-10.763323
-10.886326
-10.763323
-10.886326
-11.008371
-11.128851
-11.008371
-11.128851
-11.248245
-11.366269
-11.248245
-11.366269
-11.482952
-11.598470
-11.482952
-11.598470
-11.712501
-11.825154
-11.712501
-11.825154
-11.936555
-12.046264
-11.936555
-12.046264
-12.154778
-12.261589
-12.154778
-12.261589
-12.367119
-12.471154
-12.367119
-12.471154
-12.573440
-12.674703
-12.573440
-12.674703
-12.773897
-12.871836
-12.773897
-12.871836
-12.967820
-13.062293
-12.967820
-13.062293
-13.155266
-13.246512
-13.155266
-13.246512
-13.336053
-13.423776
-13.336053
-13.423776
-13.509510
-13.594041
-13.509510
-13.594041
-13.676133
-13.756856
-13.676133
-13.756856
-13.835088
-13.911687
-13.835088
-13.911687
-13.986573
-14.059332
-13.986573
-14.059332
-14.130316
-14.198635
-14.130316
-14.198635
-14.265247
-14.329496
-14.265247
-14.329496
-14.391779
-14.451884
-14.391779
-14.451884
-14.509531
-14.565057
-14.509531
-14.565057
-14.617878
-14.668425
-14.617878
-14.668425
-14.716399
-14.761905
-14.716399
-14.761905
-14.805044
-14.845484
-14.805044
-14.845484
-14.883550
-14.918382
-14.883550
-14.918382
-14.950870
-14.979956
-14.950870
-14.979956
-15.006587
-15.029638
-15.006587
-15.029638
-15.050157
-15.067079
-15.050157
-15.067079
-15.081234
-15.090917
-15.081234
-15.090917
-15.098307
-15.103222
-15.098307
-15.103222

