# vtk DataFile Version 2.0
MATLAB generated vtk file, WMC
ASCII
DATASET UNSTRUCTURED_GRID
POINTS 256 double
0.195312 0.065409 0.000000 
0.195312 0.196227 0.000000 
0.585938 0.065409 0.000000 
0.585938 0.196227 0.000000 
0.195312 0.327225 0.000000 
0.195312 0.458818 0.000000 
0.585938 0.327225 0.000000 
0.585938 0.458818 0.000000 
0.195312 0.590993 0.000000 
0.195312 0.723865 0.000000 
0.585938 0.590993 0.000000 
0.585938 0.723865 0.000000 
0.195312 0.857351 0.000000 
0.195312 0.991345 0.000000 
0.585938 0.857351 0.000000 
0.585938 0.991345 0.000000 
0.195312 1.125850 0.000000 
0.195312 1.260952 0.000000 
0.585938 1.125850 0.000000 
0.585938 1.260952 0.000000 
0.195312 1.396658 0.000000 
0.195312 1.533013 0.000000 
0.585938 1.396658 0.000000 
0.585938 1.533013 0.000000 
0.195312 1.669976 0.000000 
0.195312 1.807529 0.000000 
0.585938 1.669976 0.000000 
0.585938 1.807529 0.000000 
0.195312 1.945652 0.000000 
0.195312 2.084412 0.000000 
0.585938 1.945652 0.000000 
0.585938 2.084412 0.000000 
0.195312 2.223810 0.000000 
0.195312 2.363864 0.000000 
0.585938 2.223810 0.000000 
0.585938 2.363864 0.000000 
0.195312 2.504527 0.000000 
0.195312 2.645812 0.000000 
0.585938 2.504527 0.000000 
0.585938 2.645812 0.000000 
0.195312 2.787773 0.000000 
0.195312 2.930415 0.000000 
0.585938 2.787773 0.000000 
0.585938 2.930415 0.000000 
0.195312 3.073763 0.000000 
0.195312 3.217791 0.000000 
0.585938 3.073763 0.000000 
0.585938 3.217791 0.000000 
0.195312 3.362496 0.000000 
0.195312 3.507878 0.000000 
0.585938 3.362496 0.000000 
0.585938 3.507878 0.000000 
0.195312 3.653987 0.000000 
0.195312 3.800781 0.000000 
0.585938 3.653987 0.000000 
0.585938 3.800781 0.000000 
0.195312 3.948359 0.000000 
0.195312 4.096646 0.000000 
0.585938 3.948359 0.000000 
0.585938 4.096646 0.000000 
0.195312 4.245631 0.000000 
0.195312 4.395376 0.000000 
0.585938 4.245631 0.000000 
0.585938 4.395376 0.000000 
0.195312 4.545891 0.000000 
0.195312 4.697233 0.000000 
0.585938 4.545891 0.000000 
0.585938 4.697233 0.000000 
0.195312 4.849251 0.000000 
0.195312 5.002121 0.000000 
0.585938 4.849251 0.000000 
0.585938 5.002121 0.000000 
0.195312 5.155756 0.000000 
0.195312 5.310255 0.000000 
0.585938 5.155756 0.000000 
0.585938 5.310255 0.000000 
0.195312 5.465556 0.000000 
0.195312 5.621682 0.000000 
0.585938 5.465556 0.000000 
0.585938 5.621682 0.000000 
0.195312 5.778681 0.000000 
0.195312 5.936423 0.000000 
0.585938 5.778681 0.000000 
0.585938 5.936423 0.000000 
0.195312 6.095149 0.000000 
0.195312 6.254675 0.000000 
0.585938 6.095149 0.000000 
0.585938 6.254675 0.000000 
0.195312 6.415197 0.000000 
0.195312 6.576537 0.000000 
0.585938 6.415197 0.000000 
0.585938 6.576537 0.000000 
0.195312 6.738820 0.000000 
0.195312 6.902026 0.000000 
0.585938 6.738820 0.000000 
0.585938 6.902026 0.000000 
0.195312 7.066162 0.000000 
0.195312 7.231334 0.000000 
0.585938 7.066162 0.000000 
0.585938 7.231334 0.000000 
0.195312 7.397412 0.000000 
0.195312 7.564490 0.000000 
0.585938 7.397412 0.000000 
0.585938 7.564490 0.000000 
0.195312 7.732681 0.000000 
0.195312 7.901774 0.000000 
0.585938 7.732681 0.000000 
0.585938 7.901774 0.000000 
0.195312 8.071985 0.000000 
0.195312 8.243166 0.000000 
0.585938 8.071985 0.000000 
0.585938 8.243166 0.000000 
0.195312 8.415434 0.000000 
0.195312 8.588778 0.000000 
0.585938 8.415434 0.000000 
0.585938 8.588778 0.000000 
0.195312 8.763214 0.000000 
0.195312 8.938792 0.000000 
0.585938 8.763214 0.000000 
0.585938 8.938792 0.000000 
0.195312 9.115534 0.000000 
0.195312 9.293479 0.000000 
0.585938 9.115534 0.000000 
0.585938 9.293479 0.000000 
0.195312 9.472509 0.000000 
0.195312 9.652740 0.000000 
0.585938 9.472509 0.000000 
0.585938 9.652740 0.000000 
0.195312 9.834252 0.000000 
0.195312 10.016932 0.000000 
0.585938 9.834252 0.000000 
0.585938 10.016932 0.000000 
0.195312 10.200997 0.000000 
0.195312 10.386250 0.000000 
0.585938 10.200997 0.000000 
0.585938 10.386250 0.000000 
0.195312 10.572763 0.000000 
0.195312 10.760736 0.000000 
0.585938 10.572763 0.000000 
0.585938 10.760736 0.000000 
0.195312 10.949919 0.000000 
0.195312 11.140620 0.000000 
0.585938 10.949919 0.000000 
0.585938 11.140620 0.000000 
0.195312 11.332671 0.000000 
0.195312 11.526223 0.000000 
0.585938 11.332671 0.000000 
0.585938 11.526223 0.000000 
0.195312 11.721248 0.000000 
0.195312 11.917725 0.000000 
0.585938 11.721248 0.000000 
0.585938 11.917725 0.000000 
0.195312 12.115701 0.000000 
0.195312 12.315226 0.000000 
0.585938 12.115701 0.000000 
0.585938 12.315226 0.000000 
0.195312 12.516232 0.000000 
0.195312 12.719017 0.000000 
0.585938 12.516232 0.000000 
0.585938 12.719017 0.000000 
0.195312 12.923437 0.000000 
0.195312 13.129730 0.000000 
0.585938 12.923437 0.000000 
0.585938 13.129730 0.000000 
0.195312 13.337691 0.000000 
0.195312 13.547353 0.000000 
0.585938 13.337691 0.000000 
0.585938 13.547353 0.000000 
0.195312 13.758854 0.000000 
0.195312 13.971874 0.000000 
0.585938 13.758854 0.000000 
0.585938 13.971874 0.000000 
0.195312 14.186985 0.000000 
0.195312 14.403937 0.000000 
0.585938 14.186985 0.000000 
0.585938 14.403937 0.000000 
0.195312 14.623038 0.000000 
0.195312 14.844225 0.000000 
0.585938 14.623038 0.000000 
0.585938 14.844225 0.000000 
0.195312 15.067591 0.000000 
0.195312 15.292926 0.000000 
0.585938 15.067591 0.000000 
0.585938 15.292926 0.000000 
0.195312 15.520361 0.000000 
0.195312 15.750054 0.000000 
0.585938 15.520361 0.000000 
0.585938 15.750054 0.000000 
0.195312 15.982155 0.000000 
0.195312 16.216385 0.000000 
0.585938 15.982155 0.000000 
0.585938 16.216385 0.000000 
0.195312 16.453310 0.000000 
0.195312 16.692595 0.000000 
0.585938 16.453310 0.000000 
0.585938 16.692595 0.000000 
0.195312 16.934619 0.000000 
0.195312 17.179116 0.000000 
0.585938 16.934619 0.000000 
0.585938 17.179116 0.000000 
0.195312 17.426423 0.000000 
0.195312 17.676730 0.000000 
0.585938 17.426423 0.000000 
0.585938 17.676730 0.000000 
0.195312 17.929753 0.000000 
0.195312 18.185913 0.000000 
0.585938 17.929753 0.000000 
0.585938 18.185913 0.000000 
0.195312 18.444926 0.000000 
0.195312 18.707344 0.000000 
0.585938 18.444926 0.000000 
0.585938 18.707344 0.000000 
0.195312 18.972776 0.000000 
0.195312 19.241791 0.000000 
0.585938 18.972776 0.000000 
0.585938 19.241791 0.000000 
0.195312 19.514546 0.000000 
0.195312 19.790660 0.000000 
0.585938 19.514546 0.000000 
0.585938 19.790660 0.000000 
0.195312 20.070749 0.000000 
0.195312 20.354639 0.000000 
0.585938 20.070749 0.000000 
0.585938 20.354639 0.000000 
0.195312 20.643003 0.000000 
0.195312 20.935618 0.000000 
0.585938 20.643003 0.000000 
0.585938 20.935618 0.000000 
0.195312 21.232624 0.000000 
0.195312 21.534048 0.000000 
0.585938 21.232624 0.000000 
0.585938 21.534048 0.000000 
0.195312 21.840353 0.000000 
0.195312 22.152123 0.000000 
0.585938 21.840353 0.000000 
0.585938 22.152123 0.000000 
0.195312 22.468832 0.000000 
0.195312 22.791465 0.000000 
0.585938 22.468832 0.000000 
0.585938 22.791465 0.000000 
0.195312 23.119543 0.000000 
0.195312 23.455000 0.000000 
0.585938 23.119543 0.000000 
0.585938 23.455000 0.000000 
0.195312 23.796195 0.000000 
0.195312 24.144475 0.000000 
0.585938 23.796195 0.000000 
0.585938 24.144475 0.000000 
0.195312 24.499561 0.000000 
0.195312 24.864618 0.000000 
0.585938 24.499561 0.000000 
0.585938 24.864618 0.000000 
0.195312 25.235733 0.000000 
0.195312 25.613032 0.000000 
0.585938 25.235733 0.000000 
0.585938 25.613032 0.000000 

POINT_DATA 256
SCALARS sigma_xx FLOAT 1
LOOKUP_TABLE default
0.000000
-0.000000
0.000000
-0.000000
-0.000000
-0.000000
-0.000000
-0.000000
-0.000000
-0.000000
-0.000000
-0.000000
-0.000000
0.000000
-0.000000
-0.000000
-0.000000
-0.000000
-0.000000
-0.000000
-0.000000
0.000000
-0.000000
0.000000
0.000000
-0.000000
0.000000
-0.000000
-0.000000
0.000000
-0.000000
0.000000
-0.000000
-0.000000
-0.000000
-0.000000
-0.000000
-0.000000
-0.000000
-0.000000
-0.000000
-0.000000
-0.000000
-0.000000
-0.000000
-0.000000
-0.000000
-0.000000
-0.000000
-0.000000
-0.000000
-0.000000
-0.000000
-0.000000
-0.000000
-0.000000
0.000000
-0.000000
0.000000
-0.000000
-0.000000
-0.000000
-0.000000
-0.000000
-0.000000
-0.000000
-0.000000
-0.000000
-0.000000
-0.000000
-0.000000
-0.000000
-0.000000
-0.000000
-0.000000
-0.000000
-0.000000
-0.000000
-0.000000
-0.000000
-0.000000
-0.000000
-0.000000
-0.000000
-0.000000
-0.000000
-0.000000
-0.000000
-0.000000
-0.000000
-0.000000
-0.000000
-0.000000
-0.000000
-0.000000
-0.000000
-0.000000
-0.000000
0.000000
-0.000000
-0.000000
-0.000000
-0.000000
-0.000000
-0.000000
-0.000000
-0.000000
-0.000000
-0.000000
-0.000000
-0.000000
-0.000000
-0.000000
-0.000000
-0.000000
-0.000000
-0.000000
-0.000000
-0.000000
-0.000000
0.000000
-0.000000
0.000000
-0.000000
-0.000000
-0.000000
-0.000000
-0.000000
-0.000000
0.000000
-0.000000
0.000000
-0.000000
-0.000000
-0.000000
-0.000000
-0.000000
-0.000000
-0.000000
-0.000000
0.000000
-0.000000
0.000000
-0.000000
-0.000000
-0.000000
-0.000000
-0.000000
-0.000000
-0.000000
-0.000000
-0.000000
-0.000000
-0.000000
-0.000000
-0.000000
-0.000000
-0.000000
-0.000000
-0.000000
-0.000000
-0.000000
0.000000
-0.000000
-0.000000
-0.000000
-0.000000
-0.000000
-0.000000
-0.000000
-0.000000
-0.000000
0.000000
-0.000000
-0.000000
-0.000000
-0.000000
-0.000000
-0.000000
-0.000000
-0.000000
-0.000000
-0.000000
-0.000000
-0.000000
-0.000000
-0.000000
-0.000000
-0.000000
-0.000000
-0.000000
-0.000000
-0.000000
-0.000000
-0.000000
-0.000000
-0.000000
-0.000000
-0.000000
-0.000000
-0.000000
-0.000000
-0.000000
-0.000000
-0.000000
-0.000000
-0.000000
-0.000000
-0.000000
-0.000000
-0.000000
-0.000000
-0.000000
0.000000
-0.000000
-0.000000
-0.000000
-0.000000
-0.000000
-0.000000
-0.000000
0.000000
-0.000000
-0.000000
0.000000
-0.000000
0.000000
-0.000000
-0.000000
-0.000000
-0.000000
-0.000000
0.000000
-0.000000
0.000000
-0.000000
-0.000000
-0.000000
-0.000000
-0.000000
-0.000000
-0.000000
-0.000000
-0.000000
-0.000000
-0.000000
-0.000000
-0.000000
0.000000
-0.000000
0.000000
-0.000000
-0.000000
-0.000000
-0.000000
0.000000

SCALARS sigma_yy FLOAT 1
LOOKUP_TABLE default
-32665.257830
-32665.257830
-32665.257830
-32665.257830
-32438.602153
-32176.761907
-32438.602153
-32176.761907
-31853.880051
-31561.642062
-31853.880051
-31561.642062
-31290.946580
-31091.640129
-31290.946580
-31091.640129
-30825.496392
-30574.219538
-30825.496392
-30574.219538
-30285.420222
-30025.848362
-30285.420222
-30025.848362
-29758.030318
-29529.406848
-29758.030318
-29529.406848
-29263.162261
-29012.834932
-29263.162261
-29012.834932
-28725.654454
-28495.535692
-28725.654454
-28495.535692
-28231.282225
-28001.603617
-28231.282225
-28001.603617
-27712.746995
-27461.672169
-27712.746995
-27461.672169
-27167.957229
-26951.479674
-27167.957229
-26951.479674
-26674.218409
-26438.427200
-26674.218409
-26438.427200
-26153.656878
-25912.353257
-26153.656878
-25912.353257
-25628.472591
-25407.447573
-25628.472591
-25407.447573
-25124.340160
-24893.035722
-25124.340160
-24893.035722
-24614.120053
-24353.465787
-24614.120053
-24353.465787
-24111.431649
-23860.490983
-24111.431649
-23860.490983
-23588.530916
-23324.771741
-23588.530916
-23324.771741
-23067.765127
-22825.097400
-23067.765127
-22825.097400
-22549.715465
-22323.643067
-22549.715465
-22323.643067
-22040.397385
-21794.343979
-22040.397385
-21794.343979
-21505.914642
-21291.275601
-21505.914642
-21291.275601
-21005.286883
-20767.519203
-21005.286883
-20767.519203
-20496.432324
-20236.504454
-20496.432324
-20236.504454
-19985.124660
-19719.004192
-19985.124660
-19719.004192
-19443.367705
-19214.196944
-19443.367705
-19214.196944
-18947.050264
-18701.958605
-18947.050264
-18701.958605
-18428.847641
-18188.081416
-18428.847641
-18188.081416
-17911.762532
-17664.882114
-17911.762532
-17664.882114
-17389.361670
-17148.382904
-17389.361670
-17148.382904
-16879.740837
-16651.131476
-16879.740837
-16651.131476
-16355.241085
-16127.669435
-16355.241085
-16127.669435
-15835.653306
-15609.510511
-15835.653306
-15609.510511
-15333.567904
-15097.895340
-15333.567904
-15097.895340
-14824.599137
-14570.780367
-14824.599137
-14570.780367
-14299.926898
-14042.724384
-14299.926898
-14042.724384
-13785.757734
-13546.104881
-13785.757734
-13546.104881
-13270.775268
-13034.849204
-13270.775268
-13034.849204
-12777.647530
-12491.653292
-12777.647530
-12491.653292
-12246.632180
-11955.010959
-12246.632180
-11955.010959
-11718.028498
-11460.034484
-11718.028498
-11460.034484
-11227.207988
-10978.201985
-11227.207988
-10978.201985
-10711.539437
-10450.123117
-10711.539437
-10450.123117
-10170.693124
-9906.562398
-10170.693124
-9906.562398
-9662.771931
-9409.190011
-9662.771931
-9409.190011
-9168.682501
-8893.613575
-9168.682501
-8893.613575
-8641.768208
-8393.205263
-8641.768208
-8393.205263
-8112.694972
-7877.392140
-8112.694972
-7877.392140
-7590.918835
-7364.703792
-7590.918835
-7364.703792
-7073.396082
-6830.993233
-7073.396082
-6830.993233
-6566.655365
-6317.994237
-6566.655365
-6317.994237
-6064.092345
-5800.401515
-6064.092345
-5800.401515
-5547.602121
-5283.300813
-5547.602121
-5283.300813
-5024.764883
-4778.368245
-5024.764883
-4778.368245
-4507.571110
-4260.575194
-4507.571110
-4260.575194
-3976.672129
-3734.620608
-3976.672129
-3734.620608
-3479.014692
-3240.944494
-3479.014692
-3240.944494
-2950.413030
-2715.464503
-2950.413030
-2715.464503
-2447.179128
-2207.402000
-2447.179128
-2207.402000
-1923.813390
-1658.207878
-1923.813390
-1658.207878
-1419.622656
-1170.575541
-1419.622656
-1170.575541
-900.407034
-608.608722
-900.407034
-608.608722
-430.741612
-101.907676
-430.741612
-101.907676

SCALARS sigma_zz FLOAT 1
LOOKUP_TABLE default
0.000000
0.000000
0.000000
0.000000
0.000000
0.000000
0.000000
0.000000
0.000000
0.000000
0.000000
0.000000
0.000000
0.000000
0.000000
0.000000
0.000000
0.000000
0.000000
0.000000
0.000000
0.000000
0.000000
0.000000
0.000000
0.000000
0.000000
0.000000
0.000000
0.000000
0.000000
0.000000
0.000000
0.000000
0.000000
0.000000
0.000000
0.000000
0.000000
0.000000
0.000000
0.000000
0.000000
0.000000
0.000000
0.000000
0.000000
0.000000
0.000000
0.000000
0.000000
0.000000
0.000000
0.000000
0.000000
0.000000
0.000000
0.000000
0.000000
0.000000
0.000000
0.000000
0.000000
0.000000
0.000000
0.000000
0.000000
0.000000
0.000000
0.000000
0.000000
0.000000
0.000000
0.000000
0.000000
0.000000
0.000000
0.000000
0.000000
0.000000
0.000000
0.000000
0.000000
0.000000
0.000000
0.000000
0.000000
0.000000
0.000000
0.000000
0.000000
0.000000
0.000000
0.000000
0.000000
0.000000
0.000000
0.000000
0.000000
0.000000
0.000000
0.000000
0.000000
0.000000
0.000000
0.000000
0.000000
0.000000
0.000000
0.000000
0.000000
0.000000
0.000000
0.000000
0.000000
0.000000
0.000000
0.000000
0.000000
0.000000
0.000000
0.000000
0.000000
0.000000
0.000000
0.000000
0.000000
0.000000
0.000000
0.000000
0.000000
0.000000
0.000000
0.000000
0.000000
0.000000
0.000000
0.000000
0.000000
0.000000
0.000000
0.000000
0.000000
0.000000
0.000000
0.000000
0.000000
0.000000
0.000000
0.000000
0.000000
0.000000
0.000000
0.000000
0.000000
0.000000
0.000000
0.000000
0.000000
0.000000
0.000000
0.000000
0.000000
0.000000
0.000000
0.000000
0.000000
0.000000
0.000000
0.000000
0.000000
0.000000
0.000000
0.000000
0.000000
0.000000
0.000000
0.000000
0.000000
0.000000
0.000000
0.000000
0.000000
0.000000
0.000000
0.000000
0.000000
0.000000
0.000000
0.000000
0.000000
0.000000
0.000000
0.000000
0.000000
0.000000
0.000000
0.000000
0.000000
0.000000
0.000000
0.000000
0.000000
0.000000
0.000000
0.000000
0.000000
0.000000
0.000000
0.000000
0.000000
0.000000
0.000000
0.000000
0.000000
0.000000
0.000000
0.000000
0.000000
0.000000
0.000000
0.000000
0.000000
0.000000
0.000000
0.000000
0.000000
0.000000
0.000000
0.000000
0.000000
0.000000
0.000000
0.000000
0.000000
0.000000
0.000000
0.000000
0.000000
0.000000
0.000000
0.000000
0.000000
0.000000
0.000000
0.000000
0.000000
0.000000
0.000000
0.000000
0.000000
0.000000
0.000000
0.000000
0.000000
0.000000

SCALARS sigma_xy FLOAT 1
LOOKUP_TABLE default
0.000000
-0.000000
0.000000
-0.000000
-0.000000
-0.000000
-0.000000
-0.000000
-0.000000
-0.000000
-0.000000
-0.000000
-0.000000
0.000000
-0.000000
-0.000000
0.000000
0.000000
0.000000
0.000000
-0.000000
0.000000
-0.000000
0.000000
0.000000
-0.000000
0.000000
-0.000000
-0.000000
0.000000
-0.000000
0.000000
-0.000000
-0.000000
-0.000000
-0.000000
-0.000000
-0.000000
-0.000000
-0.000000
0.000000
0.000000
0.000000
0.000000
0.000000
0.000000
0.000000
-0.000000
-0.000000
-0.000000
-0.000000
-0.000000
-0.000000
-0.000000
-0.000000
-0.000000
0.000000
0.000000
0.000000
0.000000
0.000000
0.000000
0.000000
0.000000
0.000000
0.000000
0.000000
0.000000
-0.000000
-0.000000
-0.000000
-0.000000
-0.000000
0.000000
-0.000000
0.000000
-0.000000
0.000000
-0.000000
0.000000
0.000000
0.000000
0.000000
0.000000
0.000000
0.000000
0.000000
0.000000
-0.000000
-0.000000
-0.000000
-0.000000
-0.000000
-0.000000
-0.000000
-0.000000
-0.000000
0.000000
0.000000
0.000000
0.000000
0.000000
0.000000
0.000000
-0.000000
-0.000000
-0.000000
-0.000000
-0.000000
-0.000000
-0.000000
-0.000000
0.000000
0.000000
0.000000
0.000000
0.000000
0.000000
0.000000
0.000000
0.000000
-0.000000
0.000000
-0.000000
-0.000000
-0.000000
-0.000000
-0.000000
-0.000000
0.000000
-0.000000
0.000000
0.000000
-0.000000
0.000000
-0.000000
-0.000000
-0.000000
-0.000000
-0.000000
0.000000
0.000000
0.000000
0.000000
-0.000000
-0.000000
-0.000000
-0.000000
0.000000
-0.000000
0.000000
-0.000000
-0.000000
0.000000
-0.000000
0.000000
0.000000
0.000000
0.000000
0.000000
0.000000
-0.000000
0.000000
-0.000000
-0.000000
-0.000000
-0.000000
-0.000000
-0.000000
0.000000
-0.000000
0.000000
0.000000
0.000000
0.000000
0.000000
-0.000000
-0.000000
-0.000000
-0.000000
-0.000000
0.000000
-0.000000
0.000000
0.000000
-0.000000
0.000000
-0.000000
0.000000
-0.000000
0.000000
-0.000000
0.000000
-0.000000
0.000000
-0.000000
0.000000
0.000000
0.000000
0.000000
0.000000
-0.000000
0.000000
-0.000000
-0.000000
-0.000000
-0.000000
-0.000000
0.000000
0.000000
0.000000
0.000000
0.000000
0.000000
0.000000
0.000000
-0.000000
0.000000
-0.000000
0.000000
-0.000000
0.000000
-0.000000
0.000000
0.000000
-0.000000
0.000000
-0.000000
-0.000000
-0.000000
-0.000000
-0.000000
0.000000
-0.000000
0.000000
-0.000000
0.000000
0.000000
0.000000
0.000000
0.000000
0.000000
0.000000
0.000000
-0.000000
-0.000000
-0.000000
-0.000000
0.000000
0.000000
0.000000
0.000000
-0.000000
-0.000000
-0.000000
0.000000

SCALARS sigma_yz FLOAT 1
LOOKUP_TABLE default
0.000000
0.000000
0.000000
0.000000
0.000000
0.000000
0.000000
0.000000
0.000000
0.000000
0.000000
0.000000
0.000000
0.000000
0.000000
0.000000
0.000000
0.000000
0.000000
0.000000
0.000000
0.000000
0.000000
0.000000
0.000000
0.000000
0.000000
0.000000
0.000000
0.000000
0.000000
0.000000
0.000000
0.000000
0.000000
0.000000
0.000000
0.000000
0.000000
0.000000
0.000000
0.000000
0.000000
0.000000
0.000000
0.000000
0.000000
0.000000
0.000000
0.000000
0.000000
0.000000
0.000000
0.000000
0.000000
0.000000
0.000000
0.000000
0.000000
0.000000
0.000000
0.000000
0.000000
0.000000
0.000000
0.000000
0.000000
0.000000
0.000000
0.000000
0.000000
0.000000
0.000000
0.000000
0.000000
0.000000
0.000000
0.000000
0.000000
0.000000
0.000000
0.000000
0.000000
0.000000
0.000000
0.000000
0.000000
0.000000
0.000000
0.000000
0.000000
0.000000
0.000000
0.000000
0.000000
0.000000
0.000000
0.000000
0.000000
0.000000
0.000000
0.000000
0.000000
0.000000
0.000000
0.000000
0.000000
0.000000
0.000000
0.000000
0.000000
0.000000
0.000000
0.000000
0.000000
0.000000
0.000000
0.000000
0.000000
0.000000
0.000000
0.000000
0.000000
0.000000
0.000000
0.000000
0.000000
0.000000
0.000000
0.000000
0.000000
0.000000
0.000000
0.000000
0.000000
0.000000
0.000000
0.000000
0.000000
0.000000
0.000000
0.000000
0.000000
0.000000
0.000000
0.000000
0.000000
0.000000
0.000000
0.000000
0.000000
0.000000
0.000000
0.000000
0.000000
0.000000
0.000000
0.000000
0.000000
0.000000
0.000000
0.000000
0.000000
0.000000
0.000000
0.000000
0.000000
0.000000
0.000000
0.000000
0.000000
0.000000
0.000000
0.000000
0.000000
0.000000
0.000000
0.000000
0.000000
0.000000
0.000000
0.000000
0.000000
0.000000
0.000000
0.000000
0.000000
0.000000
0.000000
0.000000
0.000000
0.000000
0.000000
0.000000
0.000000
0.000000
0.000000
0.000000
0.000000
0.000000
0.000000
0.000000
0.000000
0.000000
0.000000
0.000000
0.000000
0.000000
0.000000
0.000000
0.000000
0.000000
0.000000
0.000000
0.000000
0.000000
0.000000
0.000000
0.000000
0.000000
0.000000
0.000000
0.000000
0.000000
0.000000
0.000000
0.000000
0.000000
0.000000
0.000000
0.000000
0.000000
0.000000
0.000000
0.000000
0.000000
0.000000
0.000000
0.000000
0.000000
0.000000
0.000000
0.000000
0.000000
0.000000
0.000000
0.000000
0.000000
0.000000
0.000000
0.000000
0.000000
0.000000
0.000000
0.000000
0.000000

SCALARS sigma_zx FLOAT 1
LOOKUP_TABLE default
0.000000
0.000000
0.000000
0.000000
0.000000
0.000000
0.000000
0.000000
0.000000
0.000000
0.000000
0.000000
0.000000
0.000000
0.000000
0.000000
0.000000
0.000000
0.000000
0.000000
0.000000
0.000000
0.000000
0.000000
0.000000
0.000000
0.000000
0.000000
0.000000
0.000000
0.000000
0.000000
0.000000
0.000000
0.000000
0.000000
0.000000
0.000000
0.000000
0.000000
0.000000
0.000000
0.000000
0.000000
0.000000
0.000000
0.000000
0.000000
0.000000
0.000000
0.000000
0.000000
0.000000
0.000000
0.000000
0.000000
0.000000
0.000000
0.000000
0.000000
0.000000
0.000000
0.000000
0.000000
0.000000
0.000000
0.000000
0.000000
0.000000
0.000000
0.000000
0.000000
0.000000
0.000000
0.000000
0.000000
0.000000
0.000000
0.000000
0.000000
0.000000
0.000000
0.000000
0.000000
0.000000
0.000000
0.000000
0.000000
0.000000
0.000000
0.000000
0.000000
0.000000
0.000000
0.000000
0.000000
0.000000
0.000000
0.000000
0.000000
0.000000
0.000000
0.000000
0.000000
0.000000
0.000000
0.000000
0.000000
0.000000
0.000000
0.000000
0.000000
0.000000
0.000000
0.000000
0.000000
0.000000
0.000000
0.000000
0.000000
0.000000
0.000000
0.000000
0.000000
0.000000
0.000000
0.000000
0.000000
0.000000
0.000000
0.000000
0.000000
0.000000
0.000000
0.000000
0.000000
0.000000
0.000000
0.000000
0.000000
0.000000
0.000000
0.000000
0.000000
0.000000
0.000000
0.000000
0.000000
0.000000
0.000000
0.000000
0.000000
0.000000
0.000000
0.000000
0.000000
0.000000
0.000000
0.000000
0.000000
0.000000
0.000000
0.000000
0.000000
0.000000
0.000000
0.000000
0.000000
0.000000
0.000000
0.000000
0.000000
0.000000
0.000000
0.000000
0.000000
0.000000
0.000000
0.000000
0.000000
0.000000
0.000000
0.000000
0.000000
0.000000
0.000000
0.000000
0.000000
0.000000
0.000000
0.000000
0.000000
0.000000
0.000000
0.000000
0.000000
0.000000
0.000000
0.000000
0.000000
0.000000
0.000000
0.000000
0.000000
0.000000
0.000000
0.000000
0.000000
0.000000
0.000000
0.000000
0.000000
0.000000
0.000000
0.000000
0.000000
0.000000
0.000000
0.000000
0.000000
0.000000
0.000000
0.000000
0.000000
0.000000
0.000000
0.000000
0.000000
0.000000
0.000000
0.000000
0.000000
0.000000
0.000000
0.000000
0.000000
0.000000
0.000000
0.000000
0.000000
0.000000
0.000000
0.000000
0.000000
0.000000
0.000000
0.000000
0.000000
0.000000
0.000000
0.000000
0.000000
0.000000
0.000000
0.000000
0.000000

SCALARS u_x FLOAT 1
LOOKUP_TABLE default
0.000000
0.000000
0.000000
0.000000
0.000000
0.000000
0.000000
0.000000
0.000000
0.000000
0.000000
0.000000
0.000000
0.000000
0.000000
0.000000
0.000000
0.000000
0.000000
0.000000
0.000000
0.000000
0.000000
0.000000
0.000000
0.000000
0.000000
0.000000
0.000000
0.000000
0.000000
0.000000
0.000000
0.000000
0.000000
0.000000
0.000000
0.000000
0.000000
0.000000
0.000000
0.000000
0.000000
0.000000
0.000000
0.000000
0.000000
0.000000
0.000000
0.000000
0.000000
0.000000
0.000000
0.000000
0.000000
0.000000
0.000000
0.000000
0.000000
0.000000
0.000000
0.000000
0.000000
0.000000
0.000000
0.000000
0.000000
0.000000
0.000000
0.000000
0.000000
0.000000
0.000000
0.000000
0.000000
0.000000
0.000000
0.000000
0.000000
0.000000
0.000000
0.000000
0.000000
0.000000
0.000000
0.000000
0.000000
0.000000
0.000000
0.000000
0.000000
0.000000
0.000000
0.000000
0.000000
0.000000
0.000000
0.000000
0.000000
0.000000
0.000000
0.000000
0.000000
0.000000
0.000000
0.000000
0.000000
0.000000
0.000000
0.000000
0.000000
0.000000
0.000000
0.000000
0.000000
0.000000
0.000000
0.000000
0.000000
0.000000
0.000000
0.000000
0.000000
0.000000
0.000000
0.000000
0.000000
0.000000
0.000000
0.000000
0.000000
0.000000
0.000000
0.000000
0.000000
0.000000
0.000000
0.000000
0.000000
0.000000
0.000000
0.000000
0.000000
0.000000
0.000000
0.000000
0.000000
0.000000
0.000000
0.000000
0.000000
0.000000
0.000000
0.000000
0.000000
0.000000
0.000000
0.000000
0.000000
0.000000
0.000000
0.000000
0.000000
0.000000
0.000000
0.000000
0.000000
0.000000
0.000000
0.000000
0.000000
0.000000
0.000000
0.000000
0.000000
0.000000
0.000000
0.000000
0.000000
0.000000
0.000000
0.000000
0.000000
0.000000
0.000000
0.000000
0.000000
0.000000
0.000000
0.000000
0.000000
0.000000
0.000000
0.000000
0.000000
0.000000
0.000000
0.000000
0.000000
0.000000
0.000000
0.000000
0.000000
0.000000
0.000000
0.000000
0.000000
0.000000
0.000000
0.000000
0.000000
0.000000
0.000000
0.000000
0.000000
0.000000
0.000000
0.000000
0.000000
0.000000
0.000000
0.000000
0.000000
0.000000
0.000000
0.000000
0.000000
0.000000
0.000000
0.000000
0.000000
0.000000
0.000000
0.000000
0.000000
0.000000
0.000000
0.000000
0.000000
0.000000
0.000000
0.000000
0.000000
0.000000
0.000000
0.000000
0.000000
0.000000
0.000000
0.000000
0.000000
0.000000
0.000000
0.000000
0.000000
0.000000

SCALARS u_y FLOAT 1
LOOKUP_TABLE default
-0.129903
-0.389710
-0.129903
-0.389710
-0.649337
-0.908369
-0.649337
-0.908369
-1.166820
-1.424572
-1.166820
-1.424572
-1.681711
-1.938342
-1.681711
-1.938342
-2.194462
-2.449986
-2.194462
-2.449986
-2.704904
-2.959174
-2.704904
-2.959174
-3.212836
-3.465909
-3.212836
-3.465909
-3.718410
-3.970275
-3.718410
-3.970275
-4.221502
-4.472074
-4.221502
-4.472074
-4.722036
-4.971376
-4.722036
-4.971376
-5.220039
-5.468023
-5.220039
-5.468023
-5.715300
-5.961896
-5.715300
-5.961896
-6.207816
-6.453059
-6.207816
-6.453059
-6.697575
-6.941406
-6.697575
-6.941406
-7.184454
-7.426792
-7.184454
-7.426792
-7.668431
-7.909311
-7.668431
-7.909311
-8.149421
-8.388704
-8.149421
-8.388704
-8.627312
-8.865066
-8.627312
-8.865066
-9.102056
-9.338182
-9.102056
-9.338182
-9.573506
-9.808005
-9.573506
-9.808005
-10.041632
-10.274514
-10.041632
-10.274514
-10.506413
-10.737513
-10.506413
-10.737513
-10.967615
-11.196900
-10.967615
-11.196900
-11.425242
-11.652662
-11.425242
-11.652662
-11.879151
-12.104603
-11.879151
-12.104603
-12.329151
-12.552697
-12.329151
-12.552697
-12.775131
-12.996663
-12.775131
-12.996663
-13.217078
-13.436522
-13.217078
-13.436522
-13.654878
-13.872160
-13.654878
-13.872160
-14.088348
-14.303396
-14.088348
-14.303396
-14.517278
-14.729959
-14.517278
-14.729959
-14.941553
-15.151948
-14.941553
-15.151948
-15.361061
-15.569006
-15.361061
-15.569006
-15.775566
-15.980938
-15.775566
-15.980938
-16.185049
-16.387701
-16.185049
-16.387701
-16.589143
-16.789068
-16.589143
-16.789068
-16.987642
-17.184715
-16.987642
-17.184715
-17.380315
-17.574463
-17.380315
-17.574463
-17.767111
-17.958211
-17.767111
-17.958211
-18.147830
-18.335671
-18.147830
-18.335671
-18.521875
-18.706208
-18.521875
-18.706208
-18.888872
-19.069835
-18.888872
-19.069835
-19.248959
-19.426564
-19.248959
-19.426564
-19.602078
-19.775751
-19.602078
-19.775751
-19.947274
-20.116713
-19.947274
-20.116713
-20.283971
-20.449261
-20.283971
-20.449261
-20.612451
-20.773384
-20.612451
-20.773384
-20.931908
-21.088303
-20.931908
-21.088303
-21.242002
-21.393342
-21.242002
-21.393342
-21.541943
-21.688072
-21.541943
-21.688072
-21.831389
-21.971708
-21.831389
-21.971708
-22.109309
-22.243774
-22.109309
-22.243774
-22.375387
-22.503593
-22.375387
-22.503593
-22.628786
-22.750397
-22.628786
-22.750397
-22.868267
-22.982778
-22.868267
-22.982778
-23.093314
-23.200049
-23.093314
-23.200049
-23.302309
-23.400320
-23.302309
-23.400320
-23.493938
-23.583139
-23.493938
-23.583139
-23.667459
-23.746315
-23.667459
-23.746315
-23.820230
-23.888223
-23.820230
-23.888223
-23.950770
-24.005938
-23.950770
-24.005938
-24.055367
-24.097713
-24.055367
-24.097713
-24.133252
-24.158820
-24.133252
-24.158820
-24.178329
-24.191656
-24.178329
-24.191656

