# vtk DataFile Version 2.0
MATLAB generated vtk file, WMC
ASCII
DATASET UNSTRUCTURED_GRID
POINTS 256 double
0.195312 0.100571 0.000000 
0.195312 0.301712 0.000000 
0.585938 0.100571 0.000000 
0.585938 0.301712 0.000000 
0.195312 0.503130 0.000000 
0.195312 0.705462 0.000000 
0.585938 0.503130 0.000000 
0.585938 0.705462 0.000000 
0.195312 0.908529 0.000000 
0.195312 1.112177 0.000000 
0.585938 0.908529 0.000000 
0.585938 1.112177 0.000000 
0.195312 1.316425 0.000000 
0.195312 1.521407 0.000000 
0.585938 1.316425 0.000000 
0.585938 1.521407 0.000000 
0.195312 1.727060 0.000000 
0.195312 1.933378 0.000000 
0.585938 1.727060 0.000000 
0.585938 1.933378 0.000000 
0.195312 2.140368 0.000000 
0.195312 2.348101 0.000000 
0.585938 2.140368 0.000000 
0.585938 2.348101 0.000000 
0.195312 2.556459 0.000000 
0.195312 2.765511 0.000000 
0.585938 2.556459 0.000000 
0.585938 2.765511 0.000000 
0.195312 2.975257 0.000000 
0.195312 3.185764 0.000000 
0.585938 2.975257 0.000000 
0.585938 3.185764 0.000000 
0.195312 3.396948 0.000000 
0.195312 3.608833 0.000000 
0.585938 3.396948 0.000000 
0.585938 3.608833 0.000000 
0.195312 3.821469 0.000000 
0.195312 4.034864 0.000000 
0.585938 3.821469 0.000000 
0.585938 4.034864 0.000000 
0.195312 4.249012 0.000000 
0.195312 4.463880 0.000000 
0.585938 4.249012 0.000000 
0.585938 4.463880 0.000000 
0.195312 4.679531 0.000000 
0.195312 4.895834 0.000000 
0.585938 4.679531 0.000000 
0.585938 4.895834 0.000000 
0.195312 5.112959 0.000000 
0.195312 5.330887 0.000000 
0.585938 5.112959 0.000000 
0.585938 5.330887 0.000000 
0.195312 5.549674 0.000000 
0.195312 5.769130 0.000000 
0.585938 5.549674 0.000000 
0.585938 5.769130 0.000000 
0.195312 5.989420 0.000000 
0.195312 6.210533 0.000000 
0.585938 5.989420 0.000000 
0.585938 6.210533 0.000000 
0.195312 6.432439 0.000000 
0.195312 6.655164 0.000000 
0.585938 6.432439 0.000000 
0.585938 6.655164 0.000000 
0.195312 6.878750 0.000000 
0.195312 7.103219 0.000000 
0.585938 6.878750 0.000000 
0.585938 7.103219 0.000000 
0.195312 7.328347 0.000000 
0.195312 7.554489 0.000000 
0.585938 7.328347 0.000000 
0.585938 7.554489 0.000000 
0.195312 7.781472 0.000000 
0.195312 8.009407 0.000000 
0.585938 7.781472 0.000000 
0.585938 8.009407 0.000000 
0.195312 8.238133 0.000000 
0.195312 8.467752 0.000000 
0.585938 8.238133 0.000000 
0.585938 8.467752 0.000000 
0.195312 8.698340 0.000000 
0.195312 8.929603 0.000000 
0.585938 8.698340 0.000000 
0.585938 8.929603 0.000000 
0.195312 9.161986 0.000000 
0.195312 9.395157 0.000000 
0.585938 9.161986 0.000000 
0.585938 9.395157 0.000000 
0.195312 9.629445 0.000000 
0.195312 9.864564 0.000000 
0.585938 9.629445 0.000000 
0.585938 9.864564 0.000000 
0.195312 10.100702 0.000000 
0.195312 10.337817 0.000000 
0.585938 10.100702 0.000000 
0.585938 10.337817 0.000000 
0.195312 10.575850 0.000000 
0.195312 10.815026 0.000000 
0.585938 10.575850 0.000000 
0.585938 10.815026 0.000000 
0.195312 11.055048 0.000000 
0.195312 11.296121 0.000000 
0.585938 11.055048 0.000000 
0.585938 11.296121 0.000000 
0.195312 11.538314 0.000000 
0.195312 11.781361 0.000000 
0.585938 11.538314 0.000000 
0.585938 11.781361 0.000000 
0.195312 12.025674 0.000000 
0.195312 12.270817 0.000000 
0.585938 12.025674 0.000000 
0.585938 12.270817 0.000000 
0.195312 12.517238 0.000000 
0.195312 12.764660 0.000000 
0.585938 12.517238 0.000000 
0.585938 12.764660 0.000000 
0.195312 13.013087 0.000000 
0.195312 13.262764 0.000000 
0.585938 13.013087 0.000000 
0.585938 13.262764 0.000000 
0.195312 13.513382 0.000000 
0.195312 13.765313 0.000000 
0.585938 13.513382 0.000000 
0.585938 13.765313 0.000000 
0.195312 14.018353 0.000000 
0.195312 14.272507 0.000000 
0.585938 14.018353 0.000000 
0.585938 14.272507 0.000000 
0.195312 14.527976 0.000000 
0.195312 14.784428 0.000000 
0.585938 14.527976 0.000000 
0.585938 14.784428 0.000000 
0.195312 15.042276 0.000000 
0.195312 15.301307 0.000000 
0.585938 15.042276 0.000000 
0.585938 15.301307 0.000000 
0.195312 15.561545 0.000000 
0.195312 15.823264 0.000000 
0.585938 15.561545 0.000000 
0.585938 15.823264 0.000000 
0.195312 16.085948 0.000000 
0.195312 16.350200 0.000000 
0.585938 16.085948 0.000000 
0.585938 16.350200 0.000000 
0.195312 16.615512 0.000000 
0.195312 16.882283 0.000000 
0.585938 16.615512 0.000000 
0.585938 16.882283 0.000000 
0.195312 17.150453 0.000000 
0.195312 17.419768 0.000000 
0.585938 17.150453 0.000000 
0.585938 17.419768 0.000000 
0.195312 17.690639 0.000000 
0.195312 17.962905 0.000000 
0.585938 17.690639 0.000000 
0.585938 17.962905 0.000000 
0.195312 18.236410 0.000000 
0.195312 18.511691 0.000000 
0.585938 18.236410 0.000000 
0.585938 18.511691 0.000000 
0.195312 18.788170 0.000000 
0.195312 19.066359 0.000000 
0.585938 18.788170 0.000000 
0.585938 19.066359 0.000000 
0.195312 19.345949 0.000000 
0.195312 19.627016 0.000000 
0.585938 19.345949 0.000000 
0.585938 19.627016 0.000000 
0.195312 19.909895 0.000000 
0.195312 20.193908 0.000000 
0.585938 19.909895 0.000000 
0.585938 20.193908 0.000000 
0.195312 20.479952 0.000000 
0.195312 20.767254 0.000000 
0.585938 20.479952 0.000000 
0.585938 20.767254 0.000000 
0.195312 21.056488 0.000000 
0.195312 21.347298 0.000000 
0.585938 21.056488 0.000000 
0.585938 21.347298 0.000000 
0.195312 21.639993 0.000000 
0.195312 21.934436 0.000000 
0.585938 21.639993 0.000000 
0.585938 21.934436 0.000000 
0.195312 22.230479 0.000000 
0.195312 22.528224 0.000000 
0.585938 22.230479 0.000000 
0.585938 22.528224 0.000000 
0.195312 22.827965 0.000000 
0.195312 23.129282 0.000000 
0.585938 22.827965 0.000000 
0.585938 23.129282 0.000000 
0.195312 23.433099 0.000000 
0.195312 23.738251 0.000000 
0.585938 23.433099 0.000000 
0.585938 23.738251 0.000000 
0.195312 24.045836 0.000000 
0.195312 24.355075 0.000000 
0.585938 24.045836 0.000000 
0.585938 24.355075 0.000000 
0.195312 24.666544 0.000000 
0.195312 24.980264 0.000000 
0.585938 24.666544 0.000000 
0.585938 24.980264 0.000000 
0.195312 25.295632 0.000000 
0.195312 25.613475 0.000000 
0.585938 25.295632 0.000000 
0.585938 25.613475 0.000000 
0.195312 25.933078 0.000000 
0.195312 26.255521 0.000000 
0.585938 25.933078 0.000000 
0.585938 26.255521 0.000000 
0.195312 26.580000 0.000000 
0.195312 26.906712 0.000000 
0.585938 26.580000 0.000000 
0.585938 26.906712 0.000000 
0.195312 27.235908 0.000000 
0.195312 27.567272 0.000000 
0.585938 27.235908 0.000000 
0.585938 27.567272 0.000000 
0.195312 27.901486 0.000000 
0.195312 28.238005 0.000000 
0.585938 27.901486 0.000000 
0.585938 28.238005 0.000000 
0.195312 28.577442 0.000000 
0.195312 28.919410 0.000000 
0.585938 28.577442 0.000000 
0.585938 28.919410 0.000000 
0.195312 29.264086 0.000000 
0.195312 29.611632 0.000000 
0.585938 29.264086 0.000000 
0.585938 29.611632 0.000000 
0.195312 29.961575 0.000000 
0.195312 30.314782 0.000000 
0.585938 29.961575 0.000000 
0.585938 30.314782 0.000000 
0.195312 30.670449 0.000000 
0.195312 31.029830 0.000000 
0.585938 30.670449 0.000000 
0.585938 31.029830 0.000000 
0.195312 31.391747 0.000000 
0.195312 31.757570 0.000000 
0.585938 31.391747 0.000000 
0.585938 31.757570 0.000000 
0.195312 32.126015 0.000000 
0.195312 32.498472 0.000000 
0.585938 32.126015 0.000000 
0.585938 32.498472 0.000000 
0.195312 32.873795 0.000000 
0.195312 33.253846 0.000000 
0.585938 32.873795 0.000000 
0.585938 33.253846 0.000000 
0.195312 33.636311 0.000000 
0.195312 34.021971 0.000000 
0.585938 33.636311 0.000000 
0.585938 34.021971 0.000000 

POINT_DATA 256
SCALARS sigma_xx FLOAT 1
LOOKUP_TABLE default
0.000000
0.000000
0.000000
0.000000
-0.000000
-0.000000
-0.000000
-0.000000
-0.000000
-0.000000
-0.000000
-0.000000
-0.000000
0.000000
-0.000000
0.000000
0.000000
-0.000000
0.000000
-0.000000
-0.000000
-0.000000
-0.000000
-0.000000
-0.000000
-0.000000
-0.000000
-0.000000
0.000000
0.000000
0.000000
0.000000
-0.000000
0.000000
-0.000000
0.000000
0.000000
-0.000000
0.000000
-0.000000
-0.000000
-0.000000
-0.000000
-0.000000
0.000000
-0.000000
0.000000
-0.000000
-0.000000
0.000000
-0.000000
0.000000
-0.000000
-0.000000
-0.000000
-0.000000
-0.000000
-0.000000
-0.000000
-0.000000
-0.000000
-0.000000
-0.000000
-0.000000
-0.000000
-0.000000
-0.000000
-0.000000
-0.000000
-0.000000
0.000000
-0.000000
-0.000000
-0.000000
-0.000000
0.000000
-0.000000
0.000000
-0.000000
0.000000
0.000000
0.000000
0.000000
0.000000
-0.000000
0.000000
-0.000000
0.000000
0.000000
-0.000000
0.000000
-0.000000
-0.000000
-0.000000
-0.000000
-0.000000
-0.000000
0.000000
-0.000000
0.000000
-0.000000
-0.000000
-0.000000
-0.000000
-0.000000
-0.000000
-0.000000
-0.000000
-0.000000
-0.000000
-0.000000
-0.000000
0.000000
0.000000
0.000000
0.000000
0.000000
0.000000
0.000000
0.000000
0.000000
0.000000
0.000000
0.000000
-0.000000
0.000000
-0.000000
0.000000
-0.000000
-0.000000
-0.000000
-0.000000
-0.000000
0.000000
-0.000000
0.000000
-0.000000
-0.000000
-0.000000
-0.000000
-0.000000
-0.000000
-0.000000
-0.000000
-0.000000
-0.000000
-0.000000
-0.000000
-0.000000
-0.000000
-0.000000
-0.000000
-0.000000
-0.000000
-0.000000
-0.000000
-0.000000
0.000000
-0.000000
0.000000
-0.000000
0.000000
-0.000000
0.000000
-0.000000
-0.000000
-0.000000
-0.000000
0.000000
-0.000000
0.000000
-0.000000
0.000000
-0.000000
-0.000000
-0.000000
0.000000
-0.000000
-0.000000
-0.000000
-0.000000
-0.000000
-0.000000
-0.000000
-0.000000
-0.000000
-0.000000
-0.000000
-0.000000
-0.000000
-0.000000
-0.000000
-0.000000
-0.000000
-0.000000
-0.000000
-0.000000
-0.000000
-0.000000
-0.000000
0.000000
0.000000
-0.000000
0.000000
-0.000000
0.000000
0.000000
0.000000
0.000000
0.000000
0.000000
0.000000
0.000000
0.000000
0.000000
-0.000000
-0.000000
-0.000000
-0.000000
-0.000000
-0.000000
-0.000000
-0.000000
-0.000000
-0.000000
0.000000
-0.000000
0.000000
0.000000
-0.000000
0.000000
-0.000000
-0.000000
-0.000000
-0.000000
-0.000000
-0.000000
-0.000000
-0.000000
-0.000000
0.000000
-0.000000
-0.000000
-0.000000
-0.000000
-0.000000
-0.000000
-0.000000
0.000000
0.000000
-0.000000
0.000000
-0.000000
0.000000
0.000000
0.000000

SCALARS sigma_yy FLOAT 1
LOOKUP_TABLE default
-12890.149003
-12890.149003
-12890.149003
-12890.149003
-12773.048890
-12639.131863
-12773.048890
-12639.131863
-12533.005337
-12456.691982
-12533.005337
-12456.691982
-12339.320929
-12238.720186
-12339.320929
-12238.720186
-12133.117662
-12040.463632
-12133.117662
-12040.463632
-11925.826258
-11831.900579
-11925.826258
-11831.900579
-11729.483258
-11637.494372
-11729.483258
-11637.494372
-11520.912334
-11426.332767
-11520.912334
-11426.332767
-11320.333272
-11231.991867
-11320.333272
-11231.991867
-11113.103468
-11024.000362
-11113.103468
-11024.000362
-10910.016524
-10819.337955
-10910.016524
-10819.337955
-10708.284510
-10630.796545
-10708.284510
-10630.796545
-10507.226809
-10411.651099
-10507.226809
-10411.651099
-10295.722282
-10217.805010
-10295.722282
-10217.805010
-10100.880264
-10010.587071
-10100.880264
-10010.587071
-9892.648792
-9808.287968
-9892.648792
-9808.287968
-9690.432287
-9604.217244
-9690.432287
-9604.217244
-9498.124867
-9397.192868
-9498.124867
-9397.192868
-9287.563716
-9184.071231
-9287.563716
-9184.071231
-9091.012661
-8985.102891
-9091.012661
-8985.102891
-8887.193143
-8797.191388
-8887.193143
-8797.191388
-8684.138210
-8591.176997
-8684.138210
-8591.176997
-8465.699443
-8391.953000
-8465.699443
-8391.953000
-8265.461942
-8179.562357
-8265.461942
-8179.562357
-8071.286379
-7967.934406
-8071.286379
-7967.934406
-7872.915939
-7769.349679
-7872.915939
-7769.349679
-7660.907651
-7571.586245
-7660.907651
-7571.586245
-7461.804994
-7373.062313
-7461.804994
-7373.062313
-7240.974416
-7175.420045
-7240.974416
-7175.420045
-7048.676221
-6966.034049
-7048.676221
-6966.034049
-6859.113739
-6751.512433
-6859.113739
-6751.512433
-6647.907281
-6558.775529
-6647.907281
-6558.775529
-6441.590330
-6365.851164
-6441.590330
-6365.851164
-6231.551621
-6152.197062
-6231.551621
-6152.197062
-6027.428510
-5945.092779
-6027.428510
-5945.092779
-5840.801445
-5733.262814
-5840.801445
-5733.262814
-5643.764978
-5529.518954
-5643.764978
-5529.518954
-5434.293754
-5345.338485
-5434.293754
-5345.338485
-5220.818232
-5137.467236
-5220.818232
-5137.467236
-5028.273513
-4921.150205
-5028.273513
-4921.150205
-4834.530828
-4710.092906
-4834.530828
-4710.092906
-4631.240144
-4509.967703
-4631.240144
-4509.967703
-4420.382464
-4322.528147
-4420.382464
-4322.528147
-4210.548455
-4122.617666
-4210.548455
-4122.617666
-4004.805292
-3910.915883
-4004.805292
-3910.915883
-3800.496819
-3704.344614
-3800.496819
-3704.344614
-3613.252838
-3506.978000
-3613.252838
-3506.978000
-3404.149799
-3307.110278
-3404.149799
-3307.110278
-3181.128230
-3118.406182
-3181.128230
-3118.406182
-2971.564734
-2915.678743
-2971.564734
-2915.678743
-2765.644968
-2703.620301
-2765.644968
-2703.620301
-2585.194042
-2501.314553
-2585.194042
-2501.314553
-2386.721489
-2276.506509
-2386.721489
-2276.506509
-2184.141029
-2084.131634
-2184.141029
-2084.131634
-1980.725128
-1887.816862
-1980.725128
-1887.816862
-1768.212354
-1686.438570
-1768.212354
-1686.438570
-1554.283813
-1485.224095
-1554.283813
-1485.224095
-1350.390520
-1283.827831
-1350.390520
-1283.827831
-1159.420181
-1082.465697
-1159.420181
-1082.465697
-960.073739
-870.865528
-960.073739
-870.865528
-758.881395
-661.697161
-758.881395
-661.697161
-560.041563
-456.935218
-560.041563
-456.935218
-353.834557
-236.682693
-353.834557
-236.682693
-179.264805
-29.967055
-179.264805
-29.967055

SCALARS sigma_zz FLOAT 1
LOOKUP_TABLE default
0.000000
0.000000
0.000000
0.000000
0.000000
0.000000
0.000000
0.000000
0.000000
0.000000
0.000000
0.000000
0.000000
0.000000
0.000000
0.000000
0.000000
0.000000
0.000000
0.000000
0.000000
0.000000
0.000000
0.000000
0.000000
0.000000
0.000000
0.000000
0.000000
0.000000
0.000000
0.000000
0.000000
0.000000
0.000000
0.000000
0.000000
0.000000
0.000000
0.000000
0.000000
0.000000
0.000000
0.000000
0.000000
0.000000
0.000000
0.000000
0.000000
0.000000
0.000000
0.000000
0.000000
0.000000
0.000000
0.000000
0.000000
0.000000
0.000000
0.000000
0.000000
0.000000
0.000000
0.000000
0.000000
0.000000
0.000000
0.000000
0.000000
0.000000
0.000000
0.000000
0.000000
0.000000
0.000000
0.000000
0.000000
0.000000
0.000000
0.000000
0.000000
0.000000
0.000000
0.000000
0.000000
0.000000
0.000000
0.000000
0.000000
0.000000
0.000000
0.000000
0.000000
0.000000
0.000000
0.000000
0.000000
0.000000
0.000000
0.000000
0.000000
0.000000
0.000000
0.000000
0.000000
0.000000
0.000000
0.000000
0.000000
0.000000
0.000000
0.000000
0.000000
0.000000
0.000000
0.000000
0.000000
0.000000
0.000000
0.000000
0.000000
0.000000
0.000000
0.000000
0.000000
0.000000
0.000000
0.000000
0.000000
0.000000
0.000000
0.000000
0.000000
0.000000
0.000000
0.000000
0.000000
0.000000
0.000000
0.000000
0.000000
0.000000
0.000000
0.000000
0.000000
0.000000
0.000000
0.000000
0.000000
0.000000
0.000000
0.000000
0.000000
0.000000
0.000000
0.000000
0.000000
0.000000
0.000000
0.000000
0.000000
0.000000
0.000000
0.000000
0.000000
0.000000
0.000000
0.000000
0.000000
0.000000
0.000000
0.000000
0.000000
0.000000
0.000000
0.000000
0.000000
0.000000
0.000000
0.000000
0.000000
0.000000
0.000000
0.000000
0.000000
0.000000
0.000000
0.000000
0.000000
0.000000
0.000000
0.000000
0.000000
0.000000
0.000000
0.000000
0.000000
0.000000
0.000000
0.000000
0.000000
0.000000
0.000000
0.000000
0.000000
0.000000
0.000000
0.000000
0.000000
0.000000
0.000000
0.000000
0.000000
0.000000
0.000000
0.000000
0.000000
0.000000
0.000000
0.000000
0.000000
0.000000
0.000000
0.000000
0.000000
0.000000
0.000000
0.000000
0.000000
0.000000
0.000000
0.000000
0.000000
0.000000
0.000000
0.000000
0.000000
0.000000
0.000000
0.000000
0.000000
0.000000
0.000000
0.000000
0.000000
0.000000
0.000000
0.000000
0.000000
0.000000
0.000000
0.000000
0.000000
0.000000
0.000000
0.000000

SCALARS sigma_xy FLOAT 1
LOOKUP_TABLE default
0.000000
0.000000
0.000000
0.000000
0.000000
0.000000
0.000000
0.000000
0.000000
0.000000
0.000000
0.000000
0.000000
0.000000
0.000000
0.000000
0.000000
-0.000000
0.000000
-0.000000
-0.000000
-0.000000
-0.000000
-0.000000
0.000000
0.000000
0.000000
0.000000
0.000000
0.000000
0.000000
0.000000
-0.000000
0.000000
-0.000000
0.000000
0.000000
0.000000
0.000000
0.000000
0.000000
0.000000
0.000000
0.000000
0.000000
-0.000000
0.000000
-0.000000
-0.000000
0.000000
-0.000000
0.000000
0.000000
0.000000
0.000000
0.000000
0.000000
-0.000000
0.000000
-0.000000
-0.000000
-0.000000
-0.000000
-0.000000
0.000000
0.000000
0.000000
0.000000
0.000000
-0.000000
0.000000
-0.000000
-0.000000
0.000000
-0.000000
0.000000
-0.000000
0.000000
-0.000000
0.000000
0.000000
0.000000
0.000000
0.000000
0.000000
0.000000
0.000000
0.000000
0.000000
-0.000000
0.000000
-0.000000
-0.000000
-0.000000
-0.000000
-0.000000
-0.000000
0.000000
-0.000000
0.000000
0.000000
0.000000
0.000000
0.000000
0.000000
0.000000
0.000000
-0.000000
-0.000000
-0.000000
-0.000000
-0.000000
0.000000
0.000000
0.000000
0.000000
0.000000
0.000000
0.000000
0.000000
0.000000
0.000000
0.000000
0.000000
0.000000
0.000000
0.000000
0.000000
-0.000000
-0.000000
-0.000000
-0.000000
0.000000
0.000000
0.000000
0.000000
-0.000000
-0.000000
-0.000000
-0.000000
0.000000
0.000000
0.000000
0.000000
-0.000000
-0.000000
-0.000000
-0.000000
-0.000000
0.000000
0.000000
0.000000
-0.000000
-0.000000
-0.000000
-0.000000
0.000000
0.000000
0.000000
0.000000
0.000000
0.000000
-0.000000
0.000000
-0.000000
0.000000
-0.000000
0.000000
0.000000
-0.000000
0.000000
-0.000000
0.000000
0.000000
-0.000000
0.000000
0.000000
-0.000000
-0.000000
-0.000000
-0.000000
0.000000
-0.000000
0.000000
0.000000
0.000000
0.000000
0.000000
0.000000
0.000000
0.000000
0.000000
-0.000000
-0.000000
-0.000000
-0.000000
-0.000000
0.000000
-0.000000
0.000000
0.000000
0.000000
0.000000
0.000000
0.000000
0.000000
0.000000
0.000000
0.000000
0.000000
0.000000
0.000000
0.000000
0.000000
0.000000
0.000000
0.000000
0.000000
0.000000
0.000000
-0.000000
-0.000000
-0.000000
-0.000000
-0.000000
0.000000
-0.000000
0.000000
0.000000
-0.000000
0.000000
-0.000000
-0.000000
-0.000000
-0.000000
-0.000000
0.000000
0.000000
0.000000
0.000000
0.000000
0.000000
0.000000
0.000000
-0.000000
-0.000000
-0.000000
-0.000000
0.000000
0.000000
-0.000000
0.000000
0.000000
0.000000
0.000000
0.000000

SCALARS sigma_yz FLOAT 1
LOOKUP_TABLE default
0.000000
0.000000
0.000000
0.000000
0.000000
0.000000
0.000000
0.000000
0.000000
0.000000
0.000000
0.000000
0.000000
0.000000
0.000000
0.000000
0.000000
0.000000
0.000000
0.000000
0.000000
0.000000
0.000000
0.000000
0.000000
0.000000
0.000000
0.000000
0.000000
0.000000
0.000000
0.000000
0.000000
0.000000
0.000000
0.000000
0.000000
0.000000
0.000000
0.000000
0.000000
0.000000
0.000000
0.000000
0.000000
0.000000
0.000000
0.000000
0.000000
0.000000
0.000000
0.000000
0.000000
0.000000
0.000000
0.000000
0.000000
0.000000
0.000000
0.000000
0.000000
0.000000
0.000000
0.000000
0.000000
0.000000
0.000000
0.000000
0.000000
0.000000
0.000000
0.000000
0.000000
0.000000
0.000000
0.000000
0.000000
0.000000
0.000000
0.000000
0.000000
0.000000
0.000000
0.000000
0.000000
0.000000
0.000000
0.000000
0.000000
0.000000
0.000000
0.000000
0.000000
0.000000
0.000000
0.000000
0.000000
0.000000
0.000000
0.000000
0.000000
0.000000
0.000000
0.000000
0.000000
0.000000
0.000000
0.000000
0.000000
0.000000
0.000000
0.000000
0.000000
0.000000
0.000000
0.000000
0.000000
0.000000
0.000000
0.000000
0.000000
0.000000
0.000000
0.000000
0.000000
0.000000
0.000000
0.000000
0.000000
0.000000
0.000000
0.000000
0.000000
0.000000
0.000000
0.000000
0.000000
0.000000
0.000000
0.000000
0.000000
0.000000
0.000000
0.000000
0.000000
0.000000
0.000000
0.000000
0.000000
0.000000
0.000000
0.000000
0.000000
0.000000
0.000000
0.000000
0.000000
0.000000
0.000000
0.000000
0.000000
0.000000
0.000000
0.000000
0.000000
0.000000
0.000000
0.000000
0.000000
0.000000
0.000000
0.000000
0.000000
0.000000
0.000000
0.000000
0.000000
0.000000
0.000000
0.000000
0.000000
0.000000
0.000000
0.000000
0.000000
0.000000
0.000000
0.000000
0.000000
0.000000
0.000000
0.000000
0.000000
0.000000
0.000000
0.000000
0.000000
0.000000
0.000000
0.000000
0.000000
0.000000
0.000000
0.000000
0.000000
0.000000
0.000000
0.000000
0.000000
0.000000
0.000000
0.000000
0.000000
0.000000
0.000000
0.000000
0.000000
0.000000
0.000000
0.000000
0.000000
0.000000
0.000000
0.000000
0.000000
0.000000
0.000000
0.000000
0.000000
0.000000
0.000000
0.000000
0.000000
0.000000
0.000000
0.000000
0.000000
0.000000
0.000000
0.000000
0.000000
0.000000
0.000000
0.000000
0.000000
0.000000
0.000000
0.000000
0.000000
0.000000
0.000000
0.000000
0.000000
0.000000
0.000000
0.000000

SCALARS sigma_zx FLOAT 1
LOOKUP_TABLE default
0.000000
0.000000
0.000000
0.000000
0.000000
0.000000
0.000000
0.000000
0.000000
0.000000
0.000000
0.000000
0.000000
0.000000
0.000000
0.000000
0.000000
0.000000
0.000000
0.000000
0.000000
0.000000
0.000000
0.000000
0.000000
0.000000
0.000000
0.000000
0.000000
0.000000
0.000000
0.000000
0.000000
0.000000
0.000000
0.000000
0.000000
0.000000
0.000000
0.000000
0.000000
0.000000
0.000000
0.000000
0.000000
0.000000
0.000000
0.000000
0.000000
0.000000
0.000000
0.000000
0.000000
0.000000
0.000000
0.000000
0.000000
0.000000
0.000000
0.000000
0.000000
0.000000
0.000000
0.000000
0.000000
0.000000
0.000000
0.000000
0.000000
0.000000
0.000000
0.000000
0.000000
0.000000
0.000000
0.000000
0.000000
0.000000
0.000000
0.000000
0.000000
0.000000
0.000000
0.000000
0.000000
0.000000
0.000000
0.000000
0.000000
0.000000
0.000000
0.000000
0.000000
0.000000
0.000000
0.000000
0.000000
0.000000
0.000000
0.000000
0.000000
0.000000
0.000000
0.000000
0.000000
0.000000
0.000000
0.000000
0.000000
0.000000
0.000000
0.000000
0.000000
0.000000
0.000000
0.000000
0.000000
0.000000
0.000000
0.000000
0.000000
0.000000
0.000000
0.000000
0.000000
0.000000
0.000000
0.000000
0.000000
0.000000
0.000000
0.000000
0.000000
0.000000
0.000000
0.000000
0.000000
0.000000
0.000000
0.000000
0.000000
0.000000
0.000000
0.000000
0.000000
0.000000
0.000000
0.000000
0.000000
0.000000
0.000000
0.000000
0.000000
0.000000
0.000000
0.000000
0.000000
0.000000
0.000000
0.000000
0.000000
0.000000
0.000000
0.000000
0.000000
0.000000
0.000000
0.000000
0.000000
0.000000
0.000000
0.000000
0.000000
0.000000
0.000000
0.000000
0.000000
0.000000
0.000000
0.000000
0.000000
0.000000
0.000000
0.000000
0.000000
0.000000
0.000000
0.000000
0.000000
0.000000
0.000000
0.000000
0.000000
0.000000
0.000000
0.000000
0.000000
0.000000
0.000000
0.000000
0.000000
0.000000
0.000000
0.000000
0.000000
0.000000
0.000000
0.000000
0.000000
0.000000
0.000000
0.000000
0.000000
0.000000
0.000000
0.000000
0.000000
0.000000
0.000000
0.000000
0.000000
0.000000
0.000000
0.000000
0.000000
0.000000
0.000000
0.000000
0.000000
0.000000
0.000000
0.000000
0.000000
0.000000
0.000000
0.000000
0.000000
0.000000
0.000000
0.000000
0.000000
0.000000
0.000000
0.000000
0.000000
0.000000
0.000000
0.000000
0.000000
0.000000
0.000000
0.000000
0.000000
0.000000
0.000000
0.000000

SCALARS u_x FLOAT 1
LOOKUP_TABLE default
0.000000
0.000000
0.000000
0.000000
0.000000
0.000000
0.000000
0.000000
0.000000
0.000000
0.000000
0.000000
0.000000
0.000000
0.000000
0.000000
0.000000
0.000000
0.000000
0.000000
0.000000
0.000000
0.000000
0.000000
0.000000
0.000000
0.000000
0.000000
0.000000
0.000000
0.000000
0.000000
0.000000
0.000000
0.000000
0.000000
0.000000
0.000000
0.000000
0.000000
0.000000
0.000000
0.000000
0.000000
0.000000
0.000000
0.000000
0.000000
0.000000
0.000000
0.000000
0.000000
0.000000
0.000000
0.000000
0.000000
0.000000
0.000000
0.000000
0.000000
0.000000
0.000000
0.000000
0.000000
0.000000
0.000000
0.000000
0.000000
0.000000
0.000000
0.000000
0.000000
0.000000
0.000000
0.000000
0.000000
0.000000
0.000000
0.000000
0.000000
0.000000
0.000000
0.000000
0.000000
0.000000
0.000000
0.000000
0.000000
0.000000
0.000000
0.000000
0.000000
0.000000
0.000000
0.000000
0.000000
0.000000
0.000000
0.000000
0.000000
0.000000
0.000000
0.000000
0.000000
0.000000
0.000000
0.000000
0.000000
0.000000
0.000000
0.000000
0.000000
0.000000
0.000000
0.000000
0.000000
0.000000
0.000000
0.000000
0.000000
0.000000
0.000000
0.000000
0.000000
0.000000
0.000000
0.000000
0.000000
0.000000
0.000000
0.000000
0.000000
0.000000
0.000000
0.000000
0.000000
0.000000
0.000000
0.000000
0.000000
0.000000
0.000000
0.000000
0.000000
0.000000
0.000000
0.000000
0.000000
0.000000
0.000000
0.000000
0.000000
0.000000
0.000000
0.000000
0.000000
0.000000
0.000000
0.000000
0.000000
0.000000
0.000000
0.000000
0.000000
0.000000
0.000000
0.000000
0.000000
0.000000
0.000000
0.000000
0.000000
0.000000
0.000000
0.000000
0.000000
0.000000
0.000000
0.000000
0.000000
0.000000
0.000000
0.000000
0.000000
0.000000
0.000000
0.000000
0.000000
0.000000
0.000000
0.000000
0.000000
0.000000
0.000000
0.000000
0.000000
0.000000
0.000000
0.000000
0.000000
0.000000
0.000000
0.000000
0.000000
0.000000
0.000000
0.000000
0.000000
0.000000
0.000000
0.000000
0.000000
0.000000
0.000000
0.000000
0.000000
0.000000
0.000000
0.000000
0.000000
0.000000
0.000000
0.000000
0.000000
0.000000
0.000000
0.000000
0.000000
0.000000
0.000000
0.000000
0.000000
0.000000
0.000000
0.000000
0.000000
0.000000
0.000000
0.000000
0.000000
0.000000
0.000000
0.000000
0.000000
0.000000
0.000000
0.000000
0.000000
0.000000
0.000000
0.000000
0.000000
0.000000
0.000000
0.000000
0.000000

SCALARS u_y FLOAT 1
LOOKUP_TABLE default
-0.094742
-0.284226
-0.094742
-0.284226
-0.473432
-0.661726
-0.473432
-0.661726
-0.849284
-1.036260
-0.849284
-1.036260
-1.222638
-1.408281
-1.222638
-1.408281
-1.593252
-1.777559
-1.593252
-1.777559
-1.961195
-2.144086
-1.961195
-2.144086
-2.326353
-2.507927
-2.326353
-2.507927
-2.688806
-2.868924
-2.688806
-2.868924
-3.048365
-3.227104
-3.048365
-3.227104
-3.405093
-3.582323
-3.405093
-3.582323
-3.758800
-3.934558
-3.758800
-3.934558
-4.109532
-4.283854
-4.109532
-4.283854
-4.457353
-4.630050
-4.457353
-4.630050
-4.801888
-4.973058
-4.801888
-4.973058
-5.143392
-5.312905
-5.143392
-5.312905
-5.481624
-5.649524
-5.481624
-5.649524
-5.816563
-5.982718
-5.816563
-5.982718
-6.148215
-6.312698
-6.148215
-6.312698
-6.476341
-6.639030
-6.476341
-6.639030
-6.800930
-6.961936
-6.800930
-6.961936
-7.121973
-7.281335
-7.121973
-7.281335
-7.439576
-7.597030
-7.439576
-7.597030
-7.753367
-7.908873
-7.753367
-7.908873
-8.063361
-8.216871
-8.063361
-8.216871
-8.369463
-8.520911
-8.369463
-8.520911
-8.671514
-8.821066
-8.671514
-8.821066
-8.969498
-9.117077
-8.969498
-9.117077
-9.263389
-9.408870
-9.263389
-9.408870
-9.553075
-9.696278
-9.553075
-9.696278
-9.838476
-9.979424
-9.838476
-9.979424
-10.119431
-10.258124
-10.119431
-10.258124
-10.395710
-10.532181
-10.395710
-10.532181
-10.667336
-10.801510
-10.667336
-10.801510
-10.934286
-11.065880
-10.934286
-11.065880
-11.196267
-11.325174
-11.196267
-11.325174
-11.453114
-11.579488
-11.453114
-11.579488
-11.704800
-11.828654
-11.704800
-11.828654
-11.951109
-12.072419
-11.951109
-12.072419
-12.192173
-12.310532
-12.192173
-12.310532
-12.427652
-12.542996
-12.427652
-12.542996
-12.657143
-12.769578
-12.657143
-12.769578
-12.880614
-12.990171
-12.880614
-12.990171
-13.097917
-13.204530
-13.097917
-13.204530
-13.309110
-13.412433
-13.309110
-13.412433
-13.513824
-13.613640
-13.513824
-13.613640
-13.711570
-13.807752
-13.711570
-13.807752
-13.902334
-13.995213
-13.902334
-13.995213
-14.086097
-14.175406
-14.086097
-14.175406
-14.262213
-14.347687
-14.262213
-14.347687
-14.430727
-14.512112
-14.430727
-14.512112
-14.591269
-14.668173
-14.591269
-14.668173
-14.743431
-14.816212
-14.743431
-14.816212
-14.887235
-14.955417
-14.887235
-14.955417
-15.021562
-15.085476
-15.021562
-15.085476
-15.146904
-15.206165
-15.146904
-15.206165
-15.262577
-15.316683
-15.262577
-15.316683
-15.367870
-15.416527
-15.367870
-15.416527
-15.462477
-15.505556
-15.462477
-15.505556
-15.546237
-15.583656
-15.546237
-15.583656
-15.618613
-15.649857
-15.618613
-15.649857
-15.678565
-15.703368
-15.678565
-15.703368
-15.725547
-15.743716
-15.725547
-15.743716
-15.759017
-15.769592
-15.759017
-15.769592
-15.777752
-15.782717
-15.777752
-15.782717

