# vtk DataFile Version 2.0
MATLAB generated vtk file, WMC
ASCII
DATASET UNSTRUCTURED_GRID
POINTS 256 double
0.195312 0.075244 0.000000 
0.195312 0.225732 0.000000 
0.585938 0.075244 0.000000 
0.585938 0.225732 0.000000 
0.195312 0.376427 0.000000 
0.195312 0.527806 0.000000 
0.585938 0.376427 0.000000 
0.585938 0.527806 0.000000 
0.195312 0.679854 0.000000 
0.195312 0.832666 0.000000 
0.585938 0.679854 0.000000 
0.585938 0.832666 0.000000 
0.195312 0.986016 0.000000 
0.195312 1.139919 0.000000 
0.585938 0.986016 0.000000 
0.585938 1.139919 0.000000 
0.195312 1.294408 0.000000 
0.195312 1.449583 0.000000 
0.585938 1.294408 0.000000 
0.585938 1.449583 0.000000 
0.195312 1.605429 0.000000 
0.195312 1.761882 0.000000 
0.585938 1.605429 0.000000 
0.585938 1.761882 0.000000 
0.195312 1.918916 0.000000 
0.195312 2.076618 0.000000 
0.585938 1.918916 0.000000 
0.585938 2.076618 0.000000 
0.195312 2.234974 0.000000 
0.195312 2.394040 0.000000 
0.585938 2.234974 0.000000 
0.585938 2.394040 0.000000 
0.195312 2.553751 0.000000 
0.195312 2.714114 0.000000 
0.585938 2.553751 0.000000 
0.585938 2.714114 0.000000 
0.195312 2.875158 0.000000 
0.195312 3.036914 0.000000 
0.585938 2.875158 0.000000 
0.585938 3.036914 0.000000 
0.195312 3.199427 0.000000 
0.195312 3.362607 0.000000 
0.585938 3.199427 0.000000 
0.585938 3.362607 0.000000 
0.195312 3.526487 0.000000 
0.195312 3.691054 0.000000 
0.585938 3.526487 0.000000 
0.585938 3.691054 0.000000 
0.195312 3.856383 0.000000 
0.195312 4.022458 0.000000 
0.585938 3.856383 0.000000 
0.585938 4.022458 0.000000 
0.195312 4.189303 0.000000 
0.195312 4.356851 0.000000 
0.585938 4.189303 0.000000 
0.585938 4.356851 0.000000 
0.195312 4.525235 0.000000 
0.195312 4.694404 0.000000 
0.585938 4.525235 0.000000 
0.585938 4.694404 0.000000 
0.195312 4.864287 0.000000 
0.195312 5.034943 0.000000 
0.585938 4.864287 0.000000 
0.585938 5.034943 0.000000 
0.195312 5.206402 0.000000 
0.195312 5.378730 0.000000 
0.585938 5.206402 0.000000 
0.585938 5.378730 0.000000 
0.195312 5.551819 0.000000 
0.195312 5.725810 0.000000 
0.585938 5.551819 0.000000 
0.585938 5.725810 0.000000 
0.195312 5.900609 0.000000 
0.195312 6.076310 0.000000 
0.585938 5.900609 0.000000 
0.585938 6.076310 0.000000 
0.195312 6.252842 0.000000 
0.195312 6.430229 0.000000 
0.585938 6.252842 0.000000 
0.585938 6.430229 0.000000 
0.195312 6.608554 0.000000 
0.195312 6.787655 0.000000 
0.585938 6.608554 0.000000 
0.585938 6.787655 0.000000 
0.195312 6.967810 0.000000 
0.195312 7.148762 0.000000 
0.585938 6.967810 0.000000 
0.585938 7.148762 0.000000 
0.195312 7.330727 0.000000 
0.195312 7.513562 0.000000 
0.585938 7.330727 0.000000 
0.585938 7.513562 0.000000 
0.195312 7.697361 0.000000 
0.195312 7.882155 0.000000 
0.585938 7.697361 0.000000 
0.585938 7.882155 0.000000 
0.195312 8.067906 0.000000 
0.195312 8.254728 0.000000 
0.585938 8.067906 0.000000 
0.585938 8.254728 0.000000 
0.195312 8.442513 0.000000 
0.195312 8.631354 0.000000 
0.585938 8.442513 0.000000 
0.585938 8.631354 0.000000 
0.195312 8.821247 0.000000 
0.195312 9.012083 0.000000 
0.585938 8.821247 0.000000 
0.585938 9.012083 0.000000 
0.195312 9.204112 0.000000 
0.195312 9.397165 0.000000 
0.585938 9.204112 0.000000 
0.585938 9.397165 0.000000 
0.195312 9.591385 0.000000 
0.195312 9.786667 0.000000 
0.585938 9.591385 0.000000 
0.585938 9.786667 0.000000 
0.195312 9.983055 0.000000 
0.195312 10.180605 0.000000 
0.585938 9.983055 0.000000 
0.585938 10.180605 0.000000 
0.195312 10.379317 0.000000 
0.195312 10.579300 0.000000 
0.585938 10.379317 0.000000 
0.585938 10.579300 0.000000 
0.195312 10.780474 0.000000 
0.195312 10.982943 0.000000 
0.585938 10.780474 0.000000 
0.585938 10.982943 0.000000 
0.195312 11.186662 0.000000 
0.195312 11.391440 0.000000 
0.585938 11.186662 0.000000 
0.585938 11.391440 0.000000 
0.195312 11.597603 0.000000 
0.195312 11.804974 0.000000 
0.585938 11.597603 0.000000 
0.585938 11.804974 0.000000 
0.195312 12.013677 0.000000 
0.195312 12.223930 0.000000 
0.585938 12.013677 0.000000 
0.585938 12.223930 0.000000 
0.195312 12.435380 0.000000 
0.195312 12.648385 0.000000 
0.585938 12.435380 0.000000 
0.585938 12.648385 0.000000 
0.195312 12.862659 0.000000 
0.195312 13.078447 0.000000 
0.585938 12.862659 0.000000 
0.585938 13.078447 0.000000 
0.195312 13.295732 0.000000 
0.195312 13.514490 0.000000 
0.585938 13.295732 0.000000 
0.585938 13.514490 0.000000 
0.195312 13.734840 0.000000 
0.195312 13.956745 0.000000 
0.585938 13.734840 0.000000 
0.585938 13.956745 0.000000 
0.195312 14.180089 0.000000 
0.195312 14.405193 0.000000 
0.585938 14.180089 0.000000 
0.585938 14.405193 0.000000 
0.195312 14.631819 0.000000 
0.195312 14.860284 0.000000 
0.585938 14.631819 0.000000 
0.585938 14.860284 0.000000 
0.195312 15.090318 0.000000 
0.195312 15.322145 0.000000 
0.585938 15.090318 0.000000 
0.585938 15.322145 0.000000 
0.195312 15.555980 0.000000 
0.195312 15.791287 0.000000 
0.585938 15.555980 0.000000 
0.585938 15.791287 0.000000 
0.195312 16.028744 0.000000 
0.195312 16.267885 0.000000 
0.585938 16.028744 0.000000 
0.585938 16.267885 0.000000 
0.195312 16.509078 0.000000 
0.195312 16.752167 0.000000 
0.585938 16.509078 0.000000 
0.585938 16.752167 0.000000 
0.195312 16.997402 0.000000 
0.195312 17.244660 0.000000 
0.585938 16.997402 0.000000 
0.585938 17.244660 0.000000 
0.195312 17.493972 0.000000 
0.195312 17.745485 0.000000 
0.585938 17.493972 0.000000 
0.585938 17.745485 0.000000 
0.195312 17.999382 0.000000 
0.195312 18.255135 0.000000 
0.585938 17.999382 0.000000 
0.585938 18.255135 0.000000 
0.195312 18.513701 0.000000 
0.195312 18.774364 0.000000 
0.585938 18.513701 0.000000 
0.585938 18.774364 0.000000 
0.195312 19.037682 0.000000 
0.195312 19.303172 0.000000 
0.585938 19.037682 0.000000 
0.585938 19.303172 0.000000 
0.195312 19.571617 0.000000 
0.195312 19.842836 0.000000 
0.585938 19.571617 0.000000 
0.585938 19.842836 0.000000 
0.195312 20.116369 0.000000 
0.195312 20.392887 0.000000 
0.585938 20.116369 0.000000 
0.585938 20.392887 0.000000 
0.195312 20.672093 0.000000 
0.195312 20.954571 0.000000 
0.585938 20.672093 0.000000 
0.585938 20.954571 0.000000 
0.195312 21.239643 0.000000 
0.195312 21.528112 0.000000 
0.585938 21.239643 0.000000 
0.585938 21.528112 0.000000 
0.195312 21.820240 0.000000 
0.195312 22.115353 0.000000 
0.585938 21.820240 0.000000 
0.585938 22.115353 0.000000 
0.195312 22.413833 0.000000 
0.195312 22.715579 0.000000 
0.585938 22.413833 0.000000 
0.585938 22.715579 0.000000 
0.195312 23.021622 0.000000 
0.195312 23.331621 0.000000 
0.585938 23.021622 0.000000 
0.585938 23.331621 0.000000 
0.195312 23.645282 0.000000 
0.195312 23.962781 0.000000 
0.585938 23.645282 0.000000 
0.585938 23.962781 0.000000 
0.195312 24.284596 0.000000 
0.195312 24.611199 0.000000 
0.585938 24.284596 0.000000 
0.585938 24.611199 0.000000 
0.195312 24.942162 0.000000 
0.195312 25.278530 0.000000 
0.585938 24.942162 0.000000 
0.585938 25.278530 0.000000 
0.195312 25.619291 0.000000 
0.195312 25.965616 0.000000 
0.585938 25.619291 0.000000 
0.585938 25.965616 0.000000 
0.195312 26.316644 0.000000 
0.195312 26.673999 0.000000 
0.585938 26.316644 0.000000 
0.585938 26.673999 0.000000 
0.195312 27.036817 0.000000 
0.195312 27.407222 0.000000 
0.585938 27.036817 0.000000 
0.585938 27.407222 0.000000 
0.195312 27.782443 0.000000 
0.195312 28.163953 0.000000 
0.585938 27.782443 0.000000 
0.585938 28.163953 0.000000 

POINT_DATA 256
SCALARS sigma_xx FLOAT 1
LOOKUP_TABLE default
0.000000
0.000000
0.000000
0.000000
0.000000
-0.000000
0.000000
-0.000000
-0.000000
-0.000000
-0.000000
-0.000000
0.000000
-0.000000
0.000000
-0.000000
-0.000000
-0.000000
-0.000000
-0.000000
-0.000000
-0.000000
-0.000000
-0.000000
-0.000000
-0.000000
-0.000000
-0.000000
-0.000000
-0.000000
-0.000000
-0.000000
0.000000
-0.000000
-0.000000
-0.000000
0.000000
-0.000000
0.000000
-0.000000
0.000000
-0.000000
0.000000
-0.000000
0.000000
-0.000000
0.000000
-0.000000
-0.000000
-0.000000
-0.000000
-0.000000
-0.000000
-0.000000
-0.000000
-0.000000
-0.000000
-0.000000
-0.000000
-0.000000
-0.000000
-0.000000
-0.000000
-0.000000
-0.000000
-0.000000
-0.000000
-0.000000
0.000000
0.000000
0.000000
0.000000
0.000000
-0.000000
0.000000
-0.000000
-0.000000
-0.000000
-0.000000
-0.000000
-0.000000
-0.000000
-0.000000
-0.000000
-0.000000
-0.000000
-0.000000
-0.000000
0.000000
-0.000000
0.000000
-0.000000
-0.000000
-0.000000
-0.000000
-0.000000
-0.000000
0.000000
-0.000000
0.000000
-0.000000
-0.000000
-0.000000
-0.000000
-0.000000
-0.000000
-0.000000
-0.000000
-0.000000
-0.000000
-0.000000
-0.000000
-0.000000
-0.000000
-0.000000
0.000000
-0.000000
0.000000
-0.000000
0.000000
-0.000000
-0.000000
-0.000000
-0.000000
-0.000000
-0.000000
-0.000000
-0.000000
0.000000
-0.000000
0.000000
-0.000000
-0.000000
-0.000000
-0.000000
-0.000000
-0.000000
-0.000000
-0.000000
-0.000000
-0.000000
-0.000000
-0.000000
-0.000000
-0.000000
-0.000000
-0.000000
-0.000000
-0.000000
-0.000000
-0.000000
-0.000000
-0.000000
-0.000000
-0.000000
-0.000000
-0.000000
-0.000000
-0.000000
-0.000000
-0.000000
-0.000000
-0.000000
-0.000000
0.000000
-0.000000
0.000000
-0.000000
-0.000000
-0.000000
-0.000000
-0.000000
-0.000000
-0.000000
-0.000000
-0.000000
-0.000000
-0.000000
-0.000000
-0.000000
-0.000000
0.000000
-0.000000
0.000000
-0.000000
0.000000
-0.000000
0.000000
-0.000000
-0.000000
-0.000000
-0.000000
-0.000000
-0.000000
-0.000000
-0.000000
-0.000000
-0.000000
-0.000000
-0.000000
-0.000000
-0.000000
-0.000000
-0.000000
-0.000000
-0.000000
-0.000000
-0.000000
-0.000000
-0.000000
-0.000000
-0.000000
0.000000
-0.000000
0.000000
-0.000000
0.000000
-0.000000
0.000000
-0.000000
-0.000000
-0.000000
-0.000000
0.000000
-0.000000
0.000000
-0.000000
0.000000
-0.000000
-0.000000
-0.000000
-0.000000
0.000000
-0.000000
0.000000
0.000000
-0.000000
-0.000000
-0.000000
-0.000000
0.000000
-0.000000
0.000000
-0.000000
-0.000000
-0.000000
-0.000000
0.000000
-0.000000
0.000000
-0.000000
0.000000
-0.000000
-0.000000
-0.000000
-0.000000

SCALARS sigma_yy FLOAT 1
LOOKUP_TABLE default
-24759.719118
-24759.719118
-24759.719118
-24759.719118
-24575.880781
-24363.533235
-24575.880781
-24363.533235
-24101.724857
-23906.003747
-24101.724857
-23906.003747
-23721.423321
-23559.511714
-23721.423321
-23559.511714
-23343.332193
-23139.259311
-23343.332193
-23139.259311
-22928.915130
-22767.222953
-22928.915130
-22767.222953
-22563.091610
-22377.016206
-22563.091610
-22377.016206
-22160.353752
-21972.804945
-22160.353752
-21972.804945
-21770.888756
-21599.277861
-21770.888756
-21599.277861
-21384.143386
-21196.990305
-21384.143386
-21196.990305
-20978.712231
-20808.294675
-20978.712231
-20808.294675
-20597.503391
-20432.706296
-20597.503391
-20432.706296
-20207.547967
-20028.664256
-20207.547967
-20028.664256
-19813.427020
-19637.570470
-19813.427020
-19637.570470
-19411.793384
-19246.291766
-19411.793384
-19246.291766
-19033.856767
-18867.525007
-19033.856767
-18867.525007
-18656.134326
-18456.101411
-18656.134326
-18456.101411
-18258.938275
-18072.039453
-18258.938275
-18072.039453
-17865.668824
-17667.350149
-17865.668824
-17667.350149
-17477.875088
-17287.898718
-17477.875088
-17287.898718
-17081.375851
-16903.304829
-17081.375851
-16903.304829
-16689.826795
-16515.621871
-16689.826795
-16515.621871
-16294.389315
-16132.455999
-16294.389315
-16132.455999
-15915.638121
-15729.129304
-15915.638121
-15729.129304
-15528.700207
-15331.693721
-15528.700207
-15331.693721
-15128.833614
-14942.429737
-15128.833614
-14942.429737
-14741.754655
-14561.988801
-14741.754655
-14561.988801
-14354.629126
-14162.986582
-14354.629126
-14162.986582
-13949.790456
-13782.036994
-13949.790456
-13782.036994
-13569.192941
-13389.684252
-13569.192941
-13389.684252
-13179.811541
-12987.434372
-13179.811541
-12987.434372
-12767.215696
-12596.281398
-12767.215696
-12596.281398
-12387.314160
-12230.543625
-12387.314160
-12230.543625
-12005.955663
-11836.852086
-12005.955663
-11836.852086
-11609.460546
-11435.636530
-11609.460546
-11435.636530
-11224.285522
-11037.631656
-11224.285522
-11037.631656
-10844.322364
-10642.452587
-10844.322364
-10642.452587
-10449.031390
-10259.952760
-10449.031390
-10259.952760
-10041.775205
-9868.197555
-10041.775205
-9868.197555
-9675.707786
-9466.434482
-9675.707786
-9466.434482
-9290.547951
-9073.894804
-9290.547951
-9073.894804
-8896.824929
-8676.488518
-8896.824929
-8676.488518
-8495.671930
-8300.157135
-8495.671930
-8300.157135
-8098.916504
-7916.138181
-8098.916504
-7916.138181
-7707.248440
-7521.885997
-7707.248440
-7521.885997
-7324.444415
-7126.138393
-7324.444415
-7126.138393
-6944.916894
-6728.403648
-6944.916894
-6728.403648
-6547.354049
-6358.083100
-6547.354049
-6358.083100
-6135.152558
-5971.778180
-6135.152558
-5971.778180
-5750.388391
-5585.707957
-5750.388391
-5585.707957
-5340.090050
-5180.074368
-5340.090050
-5180.074368
-4979.952827
-4795.898027
-4979.952827
-4795.898027
-4592.072539
-4398.754494
-4592.072539
-4398.754494
-4206.951056
-3998.743623
-4206.951056
-3998.743623
-3791.677156
-3620.879945
-3791.677156
-3620.879945
-3426.181959
-3242.800950
-3426.181959
-3242.800950
-3000.760493
-2830.299171
-3000.760493
-2830.299171
-2636.544485
-2463.944253
-2636.544485
-2463.944253
-2230.149294
-2063.843750
-2230.149294
-2063.843750
-1837.436288
-1658.277928
-1837.436288
-1658.277928
-1458.067652
-1278.353310
-1458.067652
-1278.353310
-1081.029285
-881.736736
-1081.029285
-881.736736
-685.930983
-481.504695
-685.930983
-481.504695
-313.535369
-61.718547
-313.535369
-61.718547

SCALARS sigma_zz FLOAT 1
LOOKUP_TABLE default
0.000000
0.000000
0.000000
0.000000
0.000000
0.000000
0.000000
0.000000
0.000000
0.000000
0.000000
0.000000
0.000000
0.000000
0.000000
0.000000
0.000000
0.000000
0.000000
0.000000
0.000000
0.000000
0.000000
0.000000
0.000000
0.000000
0.000000
0.000000
0.000000
0.000000
0.000000
0.000000
0.000000
0.000000
0.000000
0.000000
0.000000
0.000000
0.000000
0.000000
0.000000
0.000000
0.000000
0.000000
0.000000
0.000000
0.000000
0.000000
0.000000
0.000000
0.000000
0.000000
0.000000
0.000000
0.000000
0.000000
0.000000
0.000000
0.000000
0.000000
0.000000
0.000000
0.000000
0.000000
0.000000
0.000000
0.000000
0.000000
0.000000
0.000000
0.000000
0.000000
0.000000
0.000000
0.000000
0.000000
0.000000
0.000000
0.000000
0.000000
0.000000
0.000000
0.000000
0.000000
0.000000
0.000000
0.000000
0.000000
0.000000
0.000000
0.000000
0.000000
0.000000
0.000000
0.000000
0.000000
0.000000
0.000000
0.000000
0.000000
0.000000
0.000000
0.000000
0.000000
0.000000
0.000000
0.000000
0.000000
0.000000
0.000000
0.000000
0.000000
0.000000
0.000000
0.000000
0.000000
0.000000
0.000000
0.000000
0.000000
0.000000
0.000000
0.000000
0.000000
0.000000
0.000000
0.000000
0.000000
0.000000
0.000000
0.000000
0.000000
0.000000
0.000000
0.000000
0.000000
0.000000
0.000000
0.000000
0.000000
0.000000
0.000000
0.000000
0.000000
0.000000
0.000000
0.000000
0.000000
0.000000
0.000000
0.000000
0.000000
0.000000
0.000000
0.000000
0.000000
0.000000
0.000000
0.000000
0.000000
0.000000
0.000000
0.000000
0.000000
0.000000
0.000000
0.000000
0.000000
0.000000
0.000000
0.000000
0.000000
0.000000
0.000000
0.000000
0.000000
0.000000
0.000000
0.000000
0.000000
0.000000
0.000000
0.000000
0.000000
0.000000
0.000000
0.000000
0.000000
0.000000
0.000000
0.000000
0.000000
0.000000
0.000000
0.000000
0.000000
0.000000
0.000000
0.000000
0.000000
0.000000
0.000000
0.000000
0.000000
0.000000
0.000000
0.000000
0.000000
0.000000
0.000000
0.000000
0.000000
0.000000
0.000000
0.000000
0.000000
0.000000
0.000000
0.000000
0.000000
0.000000
0.000000
0.000000
0.000000
0.000000
0.000000
0.000000
0.000000
0.000000
0.000000
0.000000
0.000000
0.000000
0.000000
0.000000
0.000000
0.000000
0.000000
0.000000
0.000000
0.000000
0.000000
0.000000
0.000000
0.000000
0.000000
0.000000
0.000000
0.000000
0.000000
0.000000
0.000000
0.000000
0.000000
0.000000
0.000000

SCALARS sigma_xy FLOAT 1
LOOKUP_TABLE default
0.000000
0.000000
0.000000
0.000000
0.000000
-0.000000
0.000000
-0.000000
-0.000000
-0.000000
-0.000000
-0.000000
0.000000
0.000000
0.000000
0.000000
0.000000
0.000000
0.000000
0.000000
-0.000000
-0.000000
-0.000000
-0.000000
-0.000000
-0.000000
-0.000000
-0.000000
-0.000000
0.000000
-0.000000
0.000000
0.000000
0.000000
0.000000
0.000000
0.000000
-0.000000
0.000000
-0.000000
0.000000
0.000000
0.000000
0.000000
0.000000
-0.000000
0.000000
-0.000000
-0.000000
-0.000000
-0.000000
-0.000000
0.000000
0.000000
0.000000
0.000000
0.000000
-0.000000
0.000000
-0.000000
-0.000000
-0.000000
-0.000000
-0.000000
0.000000
-0.000000
0.000000
-0.000000
0.000000
0.000000
0.000000
0.000000
0.000000
0.000000
0.000000
0.000000
-0.000000
-0.000000
-0.000000
-0.000000
0.000000
-0.000000
0.000000
-0.000000
0.000000
0.000000
0.000000
0.000000
0.000000
-0.000000
0.000000
-0.000000
-0.000000
-0.000000
-0.000000
-0.000000
-0.000000
0.000000
-0.000000
0.000000
0.000000
0.000000
0.000000
0.000000
-0.000000
-0.000000
-0.000000
-0.000000
-0.000000
0.000000
-0.000000
0.000000
0.000000
0.000000
0.000000
0.000000
0.000000
0.000000
0.000000
0.000000
-0.000000
-0.000000
-0.000000
-0.000000
-0.000000
-0.000000
-0.000000
-0.000000
0.000000
0.000000
0.000000
0.000000
0.000000
0.000000
0.000000
0.000000
-0.000000
-0.000000
-0.000000
-0.000000
-0.000000
0.000000
-0.000000
0.000000
-0.000000
-0.000000
-0.000000
-0.000000
0.000000
0.000000
0.000000
0.000000
-0.000000
-0.000000
-0.000000
-0.000000
0.000000
0.000000
0.000000
0.000000
0.000000
0.000000
-0.000000
0.000000
0.000000
0.000000
0.000000
0.000000
-0.000000
-0.000000
-0.000000
-0.000000
-0.000000
0.000000
-0.000000
0.000000
0.000000
-0.000000
0.000000
-0.000000
-0.000000
0.000000
-0.000000
0.000000
0.000000
0.000000
0.000000
0.000000
0.000000
0.000000
0.000000
0.000000
0.000000
-0.000000
0.000000
-0.000000
-0.000000
0.000000
-0.000000
0.000000
0.000000
0.000000
0.000000
0.000000
-0.000000
-0.000000
-0.000000
-0.000000
-0.000000
0.000000
-0.000000
0.000000
0.000000
-0.000000
0.000000
0.000000
0.000000
0.000000
0.000000
0.000000
-0.000000
-0.000000
-0.000000
0.000000
0.000000
0.000000
0.000000
0.000000
-0.000000
-0.000000
-0.000000
-0.000000
0.000000
-0.000000
0.000000
0.000000
0.000000
0.000000
0.000000
0.000000
0.000000
0.000000
0.000000
0.000000
-0.000000
-0.000000
-0.000000
0.000000
0.000000
0.000000
-0.000000
0.000000
-0.000000
-0.000000
-0.000000
-0.000000

SCALARS sigma_yz FLOAT 1
LOOKUP_TABLE default
0.000000
0.000000
0.000000
0.000000
0.000000
0.000000
0.000000
0.000000
0.000000
0.000000
0.000000
0.000000
0.000000
0.000000
0.000000
0.000000
0.000000
0.000000
0.000000
0.000000
0.000000
0.000000
0.000000
0.000000
0.000000
0.000000
0.000000
0.000000
0.000000
0.000000
0.000000
0.000000
0.000000
0.000000
0.000000
0.000000
0.000000
0.000000
0.000000
0.000000
0.000000
0.000000
0.000000
0.000000
0.000000
0.000000
0.000000
0.000000
0.000000
0.000000
0.000000
0.000000
0.000000
0.000000
0.000000
0.000000
0.000000
0.000000
0.000000
0.000000
0.000000
0.000000
0.000000
0.000000
0.000000
0.000000
0.000000
0.000000
0.000000
0.000000
0.000000
0.000000
0.000000
0.000000
0.000000
0.000000
0.000000
0.000000
0.000000
0.000000
0.000000
0.000000
0.000000
0.000000
0.000000
0.000000
0.000000
0.000000
0.000000
0.000000
0.000000
0.000000
0.000000
0.000000
0.000000
0.000000
0.000000
0.000000
0.000000
0.000000
0.000000
0.000000
0.000000
0.000000
0.000000
0.000000
0.000000
0.000000
0.000000
0.000000
0.000000
0.000000
0.000000
0.000000
0.000000
0.000000
0.000000
0.000000
0.000000
0.000000
0.000000
0.000000
0.000000
0.000000
0.000000
0.000000
0.000000
0.000000
0.000000
0.000000
0.000000
0.000000
0.000000
0.000000
0.000000
0.000000
0.000000
0.000000
0.000000
0.000000
0.000000
0.000000
0.000000
0.000000
0.000000
0.000000
0.000000
0.000000
0.000000
0.000000
0.000000
0.000000
0.000000
0.000000
0.000000
0.000000
0.000000
0.000000
0.000000
0.000000
0.000000
0.000000
0.000000
0.000000
0.000000
0.000000
0.000000
0.000000
0.000000
0.000000
0.000000
0.000000
0.000000
0.000000
0.000000
0.000000
0.000000
0.000000
0.000000
0.000000
0.000000
0.000000
0.000000
0.000000
0.000000
0.000000
0.000000
0.000000
0.000000
0.000000
0.000000
0.000000
0.000000
0.000000
0.000000
0.000000
0.000000
0.000000
0.000000
0.000000
0.000000
0.000000
0.000000
0.000000
0.000000
0.000000
0.000000
0.000000
0.000000
0.000000
0.000000
0.000000
0.000000
0.000000
0.000000
0.000000
0.000000
0.000000
0.000000
0.000000
0.000000
0.000000
0.000000
0.000000
0.000000
0.000000
0.000000
0.000000
0.000000
0.000000
0.000000
0.000000
0.000000
0.000000
0.000000
0.000000
0.000000
0.000000
0.000000
0.000000
0.000000
0.000000
0.000000
0.000000
0.000000
0.000000
0.000000
0.000000
0.000000
0.000000
0.000000
0.000000
0.000000
0.000000
0.000000
0.000000

SCALARS sigma_zx FLOAT 1
LOOKUP_TABLE default
0.000000
0.000000
0.000000
0.000000
0.000000
0.000000
0.000000
0.000000
0.000000
0.000000
0.000000
0.000000
0.000000
0.000000
0.000000
0.000000
0.000000
0.000000
0.000000
0.000000
0.000000
0.000000
0.000000
0.000000
0.000000
0.000000
0.000000
0.000000
0.000000
0.000000
0.000000
0.000000
0.000000
0.000000
0.000000
0.000000
0.000000
0.000000
0.000000
0.000000
0.000000
0.000000
0.000000
0.000000
0.000000
0.000000
0.000000
0.000000
0.000000
0.000000
0.000000
0.000000
0.000000
0.000000
0.000000
0.000000
0.000000
0.000000
0.000000
0.000000
0.000000
0.000000
0.000000
0.000000
0.000000
0.000000
0.000000
0.000000
0.000000
0.000000
0.000000
0.000000
0.000000
0.000000
0.000000
0.000000
0.000000
0.000000
0.000000
0.000000
0.000000
0.000000
0.000000
0.000000
0.000000
0.000000
0.000000
0.000000
0.000000
0.000000
0.000000
0.000000
0.000000
0.000000
0.000000
0.000000
0.000000
0.000000
0.000000
0.000000
0.000000
0.000000
0.000000
0.000000
0.000000
0.000000
0.000000
0.000000
0.000000
0.000000
0.000000
0.000000
0.000000
0.000000
0.000000
0.000000
0.000000
0.000000
0.000000
0.000000
0.000000
0.000000
0.000000
0.000000
0.000000
0.000000
0.000000
0.000000
0.000000
0.000000
0.000000
0.000000
0.000000
0.000000
0.000000
0.000000
0.000000
0.000000
0.000000
0.000000
0.000000
0.000000
0.000000
0.000000
0.000000
0.000000
0.000000
0.000000
0.000000
0.000000
0.000000
0.000000
0.000000
0.000000
0.000000
0.000000
0.000000
0.000000
0.000000
0.000000
0.000000
0.000000
0.000000
0.000000
0.000000
0.000000
0.000000
0.000000
0.000000
0.000000
0.000000
0.000000
0.000000
0.000000
0.000000
0.000000
0.000000
0.000000
0.000000
0.000000
0.000000
0.000000
0.000000
0.000000
0.000000
0.000000
0.000000
0.000000
0.000000
0.000000
0.000000
0.000000
0.000000
0.000000
0.000000
0.000000
0.000000
0.000000
0.000000
0.000000
0.000000
0.000000
0.000000
0.000000
0.000000
0.000000
0.000000
0.000000
0.000000
0.000000
0.000000
0.000000
0.000000
0.000000
0.000000
0.000000
0.000000
0.000000
0.000000
0.000000
0.000000
0.000000
0.000000
0.000000
0.000000
0.000000
0.000000
0.000000
0.000000
0.000000
0.000000
0.000000
0.000000
0.000000
0.000000
0.000000
0.000000
0.000000
0.000000
0.000000
0.000000
0.000000
0.000000
0.000000
0.000000
0.000000
0.000000
0.000000
0.000000
0.000000
0.000000
0.000000
0.000000
0.000000
0.000000
0.000000

SCALARS u_x FLOAT 1
LOOKUP_TABLE default
0.000000
0.000000
0.000000
0.000000
0.000000
0.000000
0.000000
0.000000
0.000000
0.000000
0.000000
0.000000
0.000000
0.000000
0.000000
0.000000
0.000000
0.000000
0.000000
0.000000
0.000000
0.000000
0.000000
0.000000
0.000000
0.000000
0.000000
0.000000
0.000000
0.000000
0.000000
0.000000
0.000000
0.000000
0.000000
0.000000
0.000000
0.000000
0.000000
0.000000
0.000000
0.000000
0.000000
0.000000
0.000000
0.000000
0.000000
0.000000
0.000000
0.000000
0.000000
0.000000
0.000000
0.000000
0.000000
0.000000
0.000000
0.000000
0.000000
0.000000
0.000000
0.000000
0.000000
0.000000
0.000000
0.000000
0.000000
0.000000
0.000000
0.000000
0.000000
0.000000
0.000000
0.000000
0.000000
0.000000
0.000000
0.000000
0.000000
0.000000
0.000000
0.000000
0.000000
0.000000
0.000000
0.000000
0.000000
0.000000
0.000000
0.000000
0.000000
0.000000
0.000000
0.000000
0.000000
0.000000
0.000000
0.000000
0.000000
0.000000
0.000000
0.000000
0.000000
0.000000
0.000000
0.000000
0.000000
0.000000
0.000000
0.000000
0.000000
0.000000
0.000000
0.000000
0.000000
0.000000
0.000000
0.000000
0.000000
0.000000
0.000000
0.000000
0.000000
0.000000
0.000000
0.000000
0.000000
0.000000
0.000000
0.000000
0.000000
0.000000
0.000000
0.000000
0.000000
0.000000
0.000000
0.000000
0.000000
0.000000
0.000000
0.000000
0.000000
0.000000
0.000000
0.000000
0.000000
0.000000
0.000000
0.000000
0.000000
0.000000
0.000000
0.000000
0.000000
0.000000
0.000000
0.000000
0.000000
0.000000
0.000000
0.000000
0.000000
0.000000
0.000000
0.000000
0.000000
0.000000
0.000000
0.000000
0.000000
0.000000
0.000000
0.000000
0.000000
0.000000
0.000000
0.000000
0.000000
0.000000
0.000000
0.000000
0.000000
0.000000
0.000000
0.000000
0.000000
0.000000
0.000000
0.000000
0.000000
0.000000
0.000000
0.000000
0.000000
0.000000
0.000000
0.000000
0.000000
0.000000
0.000000
0.000000
0.000000
0.000000
0.000000
0.000000
0.000000
0.000000
0.000000
0.000000
0.000000
0.000000
0.000000
0.000000
0.000000
0.000000
0.000000
0.000000
0.000000
0.000000
0.000000
0.000000
0.000000
0.000000
0.000000
0.000000
0.000000
0.000000
0.000000
0.000000
0.000000
0.000000
0.000000
0.000000
0.000000
0.000000
0.000000
0.000000
0.000000
0.000000
0.000000
0.000000
0.000000
0.000000
0.000000
0.000000
0.000000
0.000000
0.000000
0.000000
0.000000
0.000000
0.000000
0.000000
0.000000
0.000000

SCALARS u_y FLOAT 1
LOOKUP_TABLE default
-0.120069
-0.360206
-0.120069
-0.360206
-0.600135
-0.839381
-0.600135
-0.839381
-1.077958
-1.315771
-1.077958
-1.315771
-1.553047
-1.789769
-1.553047
-1.789769
-2.025904
-2.261355
-2.025904
-2.261355
-2.496133
-2.730306
-2.496133
-2.730306
-2.963896
-3.196820
-2.963896
-3.196820
-3.429088
-3.660647
-3.429088
-3.660647
-3.891562
-4.121823
-3.891562
-4.121823
-4.351404
-4.580273
-4.351404
-4.580273
-4.808386
-5.035831
-4.808386
-5.035831
-5.262575
-5.488633
-5.262575
-5.488633
-5.713929
-5.938479
-5.713929
-5.938479
-6.162259
-6.385337
-6.162259
-6.385337
-6.607578
-6.829033
-6.607578
-6.829033
-7.049775
-7.269744
-7.049775
-7.269744
-7.488911
-7.707207
-7.488911
-7.707207
-7.924743
-8.141378
-7.924743
-8.141378
-8.357204
-8.572127
-8.357204
-8.572127
-8.786220
-8.999458
-8.786220
-8.999458
-9.211759
-9.423283
-9.211759
-9.423283
-9.633752
-9.843426
-9.633752
-9.843426
-10.052086
-10.259876
-10.052086
-10.259876
-10.466702
-10.672532
-10.466702
-10.672532
-10.877407
-11.081210
-10.877407
-11.081210
-11.284050
-11.485833
-11.284050
-11.485833
-11.686565
-11.886355
-11.686565
-11.886355
-12.084950
-12.282523
-12.084950
-12.282523
-12.478927
-12.674270
-12.478927
-12.674270
-12.868507
-13.061583
-12.868507
-13.061583
-13.253495
-13.444137
-13.253495
-13.444137
-13.633588
-13.821744
-13.633588
-13.821744
-14.008650
-14.194497
-14.008650
-14.194497
-14.378959
-14.562213
-14.378959
-14.562213
-14.744136
-14.924508
-14.744136
-14.924508
-15.103682
-15.281302
-15.103682
-15.281302
-15.457654
-15.632491
-15.457654
-15.632491
-15.805831
-15.977698
-15.805831
-15.977698
-16.147972
-16.316692
-16.147972
-16.316692
-16.483973
-16.649494
-16.483973
-16.649494
-16.813493
-16.975653
-16.813493
-16.975653
-17.136245
-17.295043
-17.136245
-17.295043
-17.451832
-17.607150
-17.451832
-17.607150
-17.760318
-17.911802
-17.760318
-17.911802
-18.061234
-18.208770
-18.061234
-18.208770
-18.354161
-18.497527
-18.354161
-18.497527
-18.638841
-18.777953
-18.638841
-18.777953
-18.914680
-19.049552
-18.914680
-19.049552
-19.181612
-19.311574
-19.181612
-19.311574
-19.438880
-19.564015
-19.438880
-19.564015
-19.686196
-19.805602
-19.686196
-19.805602
-19.922694
-20.036800
-19.922694
-20.036800
-20.148220
-20.256366
-20.148220
-20.256366
-20.361919
-20.464075
-20.361919
-20.464075
-20.562572
-20.658085
-20.562572
-20.658085
-20.750230
-20.839108
-20.750230
-20.839108
-20.923691
-21.004316
-20.923691
-21.004316
-21.081280
-21.154407
-21.081280
-21.154407
-21.223217
-21.287238
-21.223217
-21.287238
-21.346900
-21.401158
-21.346900
-21.401158
-21.451021
-21.495322
-21.451021
-21.495322
-21.534918
-21.568189
-21.534918
-21.568189
-21.595996
-21.616215
-21.595996
-21.616215
-21.631620
-21.640735
-21.631620
-21.640735

