# vtk DataFile Version 2.0
MATLAB generated vtk file, WMC
ASCII
DATASET UNSTRUCTURED_GRID
POINTS 256 double
0.195312 0.115299 0.000000 
0.195312 0.345896 0.000000 
0.585938 0.115299 0.000000 
0.585938 0.345896 0.000000 
0.195312 0.576812 0.000000 
0.195312 0.808730 0.000000 
0.585938 0.576812 0.000000 
0.585938 0.808730 0.000000 
0.195312 1.041210 0.000000 
0.195312 1.274297 0.000000 
0.585938 1.041210 0.000000 
0.585938 1.274297 0.000000 
0.195312 1.508066 0.000000 
0.195312 1.742535 0.000000 
0.585938 1.508066 0.000000 
0.585938 1.742535 0.000000 
0.195312 1.977565 0.000000 
0.195312 2.213339 0.000000 
0.585938 1.977565 0.000000 
0.585938 2.213339 0.000000 
0.195312 2.449822 0.000000 
0.195312 2.686913 0.000000 
0.585938 2.449822 0.000000 
0.585938 2.686913 0.000000 
0.195312 2.924638 0.000000 
0.195312 3.163130 0.000000 
0.585938 2.924638 0.000000 
0.585938 3.163130 0.000000 
0.195312 3.402279 0.000000 
0.195312 3.642120 0.000000 
0.585938 3.402279 0.000000 
0.585938 3.642120 0.000000 
0.195312 3.882685 0.000000 
0.195312 4.123884 0.000000 
0.585938 3.882685 0.000000 
0.585938 4.123884 0.000000 
0.195312 4.365784 0.000000 
0.195312 4.608433 0.000000 
0.585938 4.365784 0.000000 
0.585938 4.608433 0.000000 
0.195312 4.851868 0.000000 
0.195312 5.095929 0.000000 
0.585938 4.851868 0.000000 
0.585938 5.095929 0.000000 
0.195312 5.340786 0.000000 
0.195312 5.586304 0.000000 
0.585938 5.340786 0.000000 
0.585938 5.586304 0.000000 
0.195312 5.832645 0.000000 
0.195312 6.079692 0.000000 
0.585938 5.832645 0.000000 
0.585938 6.079692 0.000000 
0.195312 6.327578 0.000000 
0.195312 6.576113 0.000000 
0.585938 6.327578 0.000000 
0.585938 6.576113 0.000000 
0.195312 6.825522 0.000000 
0.195312 7.075698 0.000000 
0.585938 6.825522 0.000000 
0.585938 7.075698 0.000000 
0.195312 7.326533 0.000000 
0.195312 7.578200 0.000000 
0.585938 7.326533 0.000000 
0.585938 7.578200 0.000000 
0.195312 7.830694 0.000000 
0.195312 8.084130 0.000000 
0.585938 7.830694 0.000000 
0.585938 8.084130 0.000000 
0.195312 8.338134 0.000000 
0.195312 8.593171 0.000000 
0.585938 8.338134 0.000000 
0.585938 8.593171 0.000000 
0.195312 8.848851 0.000000 
0.195312 9.105493 0.000000 
0.585938 8.848851 0.000000 
0.585938 9.105493 0.000000 
0.195312 9.362889 0.000000 
0.195312 9.621125 0.000000 
0.585938 9.362889 0.000000 
0.585938 9.621125 0.000000 
0.195312 9.880331 0.000000 
0.195312 10.140204 0.000000 
0.585938 9.880331 0.000000 
0.585938 10.140204 0.000000 
0.195312 10.401190 0.000000 
0.195312 10.662837 0.000000 
0.585938 10.401190 0.000000 
0.585938 10.662837 0.000000 
0.195312 10.925608 0.000000 
0.195312 11.189064 0.000000 
0.585938 10.925608 0.000000 
0.585938 11.189064 0.000000 
0.195312 11.453439 0.000000 
0.195312 11.718784 0.000000 
0.585938 11.453439 0.000000 
0.585938 11.718784 0.000000 
0.195312 11.984866 0.000000 
0.195312 12.252092 0.000000 
0.585938 11.984866 0.000000 
0.585938 12.252092 0.000000 
0.195312 12.520137 0.000000 
0.195312 12.789143 0.000000 
0.585938 12.520137 0.000000 
0.585938 12.789143 0.000000 
0.195312 13.059202 0.000000 
0.195312 13.330036 0.000000 
0.585938 13.059202 0.000000 
0.585938 13.330036 0.000000 
0.195312 13.602106 0.000000 
0.195312 13.874884 0.000000 
0.585938 13.602106 0.000000 
0.585938 13.874884 0.000000 
0.195312 14.148866 0.000000 
0.195312 14.423777 0.000000 
0.585938 14.148866 0.000000 
0.585938 14.423777 0.000000 
0.195312 14.699697 0.000000 
0.195312 14.976778 0.000000 
0.585938 14.699697 0.000000 
0.585938 14.976778 0.000000 
0.195312 15.254638 0.000000 
0.195312 15.533693 0.000000 
0.585938 15.254638 0.000000 
0.585938 15.533693 0.000000 
0.195312 15.813662 0.000000 
0.195312 16.094688 0.000000 
0.585938 15.813662 0.000000 
0.585938 16.094688 0.000000 
0.195312 16.377009 0.000000 
0.195312 16.660268 0.000000 
0.585938 16.377009 0.000000 
0.585938 16.660268 0.000000 
0.195312 16.944881 0.000000 
0.195312 17.230501 0.000000 
0.585938 16.944881 0.000000 
0.585938 17.230501 0.000000 
0.195312 17.516885 0.000000 
0.195312 17.804762 0.000000 
0.585938 17.516885 0.000000 
0.585938 17.804762 0.000000 
0.195312 18.093431 0.000000 
0.195312 18.383678 0.000000 
0.585938 18.093431 0.000000 
0.585938 18.383678 0.000000 
0.195312 18.674842 0.000000 
0.195312 18.967285 0.000000 
0.585938 18.674842 0.000000 
0.585938 18.967285 0.000000 
0.195312 19.261040 0.000000 
0.195312 19.555868 0.000000 
0.585938 19.261040 0.000000 
0.585938 19.555868 0.000000 
0.195312 19.851948 0.000000 
0.195312 20.149303 0.000000 
0.585938 19.851948 0.000000 
0.585938 20.149303 0.000000 
0.195312 20.447641 0.000000 
0.195312 20.747733 0.000000 
0.585938 20.447641 0.000000 
0.585938 20.747733 0.000000 
0.195312 21.048862 0.000000 
0.195312 21.351369 0.000000 
0.585938 21.048862 0.000000 
0.585938 21.351369 0.000000 
0.195312 21.655024 0.000000 
0.195312 21.959940 0.000000 
0.585938 21.655024 0.000000 
0.585938 21.959940 0.000000 
0.195312 22.266646 0.000000 
0.195312 22.574350 0.000000 
0.585938 22.266646 0.000000 
0.585938 22.574350 0.000000 
0.195312 22.883672 0.000000 
0.195312 23.194082 0.000000 
0.585938 22.883672 0.000000 
0.585938 23.194082 0.000000 
0.195312 23.506073 0.000000 
0.195312 23.819497 0.000000 
0.585938 23.506073 0.000000 
0.585938 23.819497 0.000000 
0.195312 24.134529 0.000000 
0.195312 24.450911 0.000000 
0.585938 24.134529 0.000000 
0.585938 24.450911 0.000000 
0.195312 24.768885 0.000000 
0.195312 25.088202 0.000000 
0.585938 24.768885 0.000000 
0.585938 25.088202 0.000000 
0.195312 25.409307 0.000000 
0.195312 25.731637 0.000000 
0.585938 25.409307 0.000000 
0.585938 25.731637 0.000000 
0.195312 26.056054 0.000000 
0.195312 26.381739 0.000000 
0.585938 26.056054 0.000000 
0.585938 26.381739 0.000000 
0.195312 26.709219 0.000000 
0.195312 27.038003 0.000000 
0.585938 26.709219 0.000000 
0.585938 27.038003 0.000000 
0.195312 27.368506 0.000000 
0.195312 27.700817 0.000000 
0.585938 27.368506 0.000000 
0.585938 27.700817 0.000000 
0.195312 28.034853 0.000000 
0.195312 28.370855 0.000000 
0.585938 28.034853 0.000000 
0.585938 28.370855 0.000000 
0.195312 28.708391 0.000000 
0.195312 29.047930 0.000000 
0.585938 28.708391 0.000000 
0.585938 29.047930 0.000000 
0.195312 29.389060 0.000000 
0.195312 29.732210 0.000000 
0.585938 29.389060 0.000000 
0.585938 29.732210 0.000000 
0.195312 30.077110 0.000000 
0.195312 30.424043 0.000000 
0.585938 30.077110 0.000000 
0.585938 30.424043 0.000000 
0.195312 30.772874 0.000000 
0.195312 31.123808 0.000000 
0.585938 30.772874 0.000000 
0.585938 31.123808 0.000000 
0.195312 31.476697 0.000000 
0.195312 31.831719 0.000000 
0.585938 31.476697 0.000000 
0.585938 31.831719 0.000000 
0.195312 32.188786 0.000000 
0.195312 32.548060 0.000000 
0.585938 32.188786 0.000000 
0.585938 32.548060 0.000000 
0.195312 32.909356 0.000000 
0.195312 33.272897 0.000000 
0.585938 32.909356 0.000000 
0.585938 33.272897 0.000000 
0.195312 33.638540 0.000000 
0.195312 34.006568 0.000000 
0.585938 33.638540 0.000000 
0.585938 34.006568 0.000000 
0.195312 34.376810 0.000000 
0.195312 34.749565 0.000000 
0.585938 34.376810 0.000000 
0.585938 34.749565 0.000000 
0.195312 35.124560 0.000000 
0.195312 35.502164 0.000000 
0.585938 35.124560 0.000000 
0.585938 35.502164 0.000000 
0.195312 35.882154 0.000000 
0.195312 36.265190 0.000000 
0.585938 35.882154 0.000000 
0.585938 36.265190 0.000000 
0.195312 36.649970 0.000000 
0.195312 37.036748 0.000000 
0.585938 36.649970 0.000000 
0.585938 37.036748 0.000000 

POINT_DATA 256
SCALARS sigma_xx FLOAT 1
LOOKUP_TABLE default
0.000000
0.000000
0.000000
0.000000
-0.000000
0.000000
-0.000000
0.000000
0.000000
0.000000
0.000000
0.000000
0.000000
0.000000
0.000000
0.000000
0.000000
0.000000
0.000000
0.000000
0.000000
-0.000000
0.000000
-0.000000
-0.000000
0.000000
-0.000000
0.000000
-0.000000
-0.000000
-0.000000
-0.000000
-0.000000
0.000000
-0.000000
0.000000
0.000000
0.000000
0.000000
0.000000
0.000000
0.000000
0.000000
0.000000
0.000000
0.000000
0.000000
-0.000000
-0.000000
0.000000
-0.000000
0.000000
0.000000
0.000000
0.000000
0.000000
0.000000
0.000000
0.000000
0.000000
0.000000
-0.000000
-0.000000
-0.000000
-0.000000
0.000000
-0.000000
0.000000
-0.000000
-0.000000
0.000000
-0.000000
-0.000000
-0.000000
-0.000000
-0.000000
-0.000000
-0.000000
-0.000000
-0.000000
0.000000
0.000000
0.000000
0.000000
0.000000
0.000000
0.000000
0.000000
0.000000
0.000000
0.000000
0.000000
0.000000
-0.000000
0.000000
-0.000000
-0.000000
-0.000000
-0.000000
-0.000000
-0.000000
-0.000000
-0.000000
-0.000000
-0.000000
0.000000
-0.000000
-0.000000
-0.000000
-0.000000
-0.000000
-0.000000
-0.000000
0.000000
-0.000000
0.000000
-0.000000
0.000000
-0.000000
0.000000
0.000000
-0.000000
0.000000
-0.000000
-0.000000
0.000000
-0.000000
0.000000
-0.000000
-0.000000
-0.000000
-0.000000
-0.000000
0.000000
0.000000
0.000000
0.000000
0.000000
-0.000000
0.000000
-0.000000
-0.000000
-0.000000
-0.000000
-0.000000
-0.000000
-0.000000
-0.000000
0.000000
-0.000000
-0.000000
-0.000000
-0.000000
-0.000000
-0.000000
-0.000000
-0.000000
0.000000
-0.000000
0.000000
0.000000
-0.000000
-0.000000
-0.000000
-0.000000
-0.000000
-0.000000
-0.000000
-0.000000
-0.000000
-0.000000
-0.000000
-0.000000
-0.000000
-0.000000
-0.000000
0.000000
-0.000000
-0.000000
-0.000000
-0.000000
-0.000000
-0.000000
-0.000000
-0.000000
0.000000
-0.000000
0.000000
-0.000000
-0.000000
-0.000000
-0.000000
-0.000000
-0.000000
-0.000000
-0.000000
-0.000000
-0.000000
-0.000000
-0.000000
-0.000000
0.000000
-0.000000
0.000000
-0.000000
0.000000
0.000000
-0.000000
0.000000
0.000000
0.000000
0.000000
0.000000
-0.000000
0.000000
-0.000000
0.000000
-0.000000
0.000000
-0.000000
-0.000000
0.000000
-0.000000
0.000000
0.000000
0.000000
0.000000
0.000000
0.000000
-0.000000
0.000000
-0.000000
0.000000
-0.000000
0.000000
0.000000
-0.000000
-0.000000
-0.000000
-0.000000
0.000000
-0.000000
0.000000
-0.000000
-0.000000
-0.000000
-0.000000
-0.000000
0.000000
-0.000000
0.000000
0.000000
-0.000000
-0.000000
-0.000000
0.000000

SCALARS sigma_yy FLOAT 1
LOOKUP_TABLE default
-8928.457861
-8928.457861
-8928.457861
-8928.457861
-8834.715680
-8747.112009
-8834.715680
-8747.112009
-8684.561879
-8623.338256
-8684.561879
-8623.338256
-8532.440137
-8479.207963
-8532.440137
-8479.207963
-8402.793134
-8328.319283
-8402.793134
-8328.319283
-8254.946283
-8199.134712
-8254.946283
-8199.134712
-8117.647121
-8051.417602
-8117.647121
-8051.417602
-7975.926809
-7910.535474
-7975.926809
-7910.535474
-7832.647503
-7779.605272
-7832.647503
-7779.605272
-7698.294583
-7631.502441
-7698.294583
-7631.502441
-7553.518740
-7495.371294
-7553.518740
-7495.371294
-7410.277551
-7359.663663
-7410.277551
-7359.663663
-7271.562024
-7212.723668
-7271.562024
-7212.723668
-7126.499113
-7076.367434
-7126.499113
-7076.367434
-6982.494248
-6937.542829
-6982.494248
-6937.542829
-6850.613657
-6795.201092
-6850.613657
-6795.201092
-6705.686496
-6645.620036
-6705.686496
-6645.620036
-6571.089529
-6506.007161
-6571.089529
-6506.007161
-6436.797468
-6357.876700
-6436.797468
-6357.876700
-6298.425880
-6220.463199
-6298.425880
-6220.463199
-6149.768657
-6084.708290
-6149.768657
-6084.708290
-6006.251380
-5945.841872
-6006.251380
-5945.841872
-5855.627778
-5813.649037
-5855.627778
-5813.649037
-5722.324347
-5668.493665
-5722.324347
-5668.493665
-5592.461027
-5519.540535
-5592.461027
-5519.540535
-5452.535222
-5377.743204
-5452.535222
-5377.743204
-5307.537660
-5244.585556
-5307.537660
-5244.585556
-5159.992637
-5112.975835
-5159.992637
-5112.975835
-5011.338623
-4966.011603
-5011.338623
-4966.011603
-4869.588147
-4824.341880
-4869.588147
-4824.341880
-4744.523351
-4679.917004
-4744.523351
-4679.917004
-4608.350456
-4541.453298
-4608.350456
-4541.453298
-4454.831429
-4401.653988
-4454.831429
-4401.653988
-4296.912041
-4269.667766
-4296.912041
-4269.667766
-4178.059841
-4124.383531
-4178.059841
-4124.383531
-4044.152717
-3968.658854
-4044.152717
-3968.658854
-3905.390543
-3829.140728
-3905.390543
-3829.140728
-3756.168474
-3699.537382
-3756.168474
-3699.537382
-3612.549564
-3560.537936
-3612.549564
-3560.537936
-3479.850688
-3400.455687
-3479.850688
-3400.455687
-3344.781396
-3263.371755
-3344.781396
-3263.371755
-3214.796091
-3121.202325
-3214.796091
-3121.202325
-3055.378268
-2989.106666
-3055.378268
-2989.106666
-2916.181608
-2857.818377
-2916.181608
-2857.818377
-2773.620330
-2710.323795
-2773.620330
-2710.323795
-2631.288351
-2569.958985
-2631.288351
-2569.958985
-2494.078861
-2428.932690
-2494.078861
-2428.932690
-2350.857488
-2291.063776
-2350.857488
-2291.063776
-2196.662648
-2152.837353
-2196.662648
-2152.837353
-2063.050763
-2025.656254
-2063.050763
-2025.656254
-1924.499285
-1878.816943
-1924.499285
-1878.816943
-1778.840775
-1731.200794
-1778.840775
-1731.200794
-1642.694273
-1589.062473
-1642.694273
-1589.062473
-1507.012913
-1447.795083
-1507.012913
-1447.795083
-1367.126936
-1306.266741
-1367.126936
-1306.266741
-1225.140638
-1163.312893
-1225.140638
-1163.312893
-1083.557419
-1022.607423
-1083.557419
-1022.607423
-941.376138
-882.126556
-941.376138
-882.126556
-803.739772
-744.470546
-803.739772
-744.470546
-665.274961
-603.523310
-665.274961
-603.523310
-524.216151
-461.649881
-524.216151
-461.649881
-384.921986
-320.614515
-384.921986
-320.614515
-239.995650
-171.888456
-239.995650
-171.888456
-128.147938
-12.689094
-128.147938
-12.689094

SCALARS sigma_zz FLOAT 1
LOOKUP_TABLE default
0.000000
0.000000
0.000000
0.000000
0.000000
0.000000
0.000000
0.000000
0.000000
0.000000
0.000000
0.000000
0.000000
0.000000
0.000000
0.000000
0.000000
0.000000
0.000000
0.000000
0.000000
0.000000
0.000000
0.000000
0.000000
0.000000
0.000000
0.000000
0.000000
0.000000
0.000000
0.000000
0.000000
0.000000
0.000000
0.000000
0.000000
0.000000
0.000000
0.000000
0.000000
0.000000
0.000000
0.000000
0.000000
0.000000
0.000000
0.000000
0.000000
0.000000
0.000000
0.000000
0.000000
0.000000
0.000000
0.000000
0.000000
0.000000
0.000000
0.000000
0.000000
0.000000
0.000000
0.000000
0.000000
0.000000
0.000000
0.000000
0.000000
0.000000
0.000000
0.000000
0.000000
0.000000
0.000000
0.000000
0.000000
0.000000
0.000000
0.000000
0.000000
0.000000
0.000000
0.000000
0.000000
0.000000
0.000000
0.000000
0.000000
0.000000
0.000000
0.000000
0.000000
0.000000
0.000000
0.000000
0.000000
0.000000
0.000000
0.000000
0.000000
0.000000
0.000000
0.000000
0.000000
0.000000
0.000000
0.000000
0.000000
0.000000
0.000000
0.000000
0.000000
0.000000
0.000000
0.000000
0.000000
0.000000
0.000000
0.000000
0.000000
0.000000
0.000000
0.000000
0.000000
0.000000
0.000000
0.000000
0.000000
0.000000
0.000000
0.000000
0.000000
0.000000
0.000000
0.000000
0.000000
0.000000
0.000000
0.000000
0.000000
0.000000
0.000000
0.000000
0.000000
0.000000
0.000000
0.000000
0.000000
0.000000
0.000000
0.000000
0.000000
0.000000
0.000000
0.000000
0.000000
0.000000
0.000000
0.000000
0.000000
0.000000
0.000000
0.000000
0.000000
0.000000
0.000000
0.000000
0.000000
0.000000
0.000000
0.000000
0.000000
0.000000
0.000000
0.000000
0.000000
0.000000
0.000000
0.000000
0.000000
0.000000
0.000000
0.000000
0.000000
0.000000
0.000000
0.000000
0.000000
0.000000
0.000000
0.000000
0.000000
0.000000
0.000000
0.000000
0.000000
0.000000
0.000000
0.000000
0.000000
0.000000
0.000000
0.000000
0.000000
0.000000
0.000000
0.000000
0.000000
0.000000
0.000000
0.000000
0.000000
0.000000
0.000000
0.000000
0.000000
0.000000
0.000000
0.000000
0.000000
0.000000
0.000000
0.000000
0.000000
0.000000
0.000000
0.000000
0.000000
0.000000
0.000000
0.000000
0.000000
0.000000
0.000000
0.000000
0.000000
0.000000
0.000000
0.000000
0.000000
0.000000
0.000000
0.000000
0.000000
0.000000
0.000000
0.000000
0.000000
0.000000
0.000000
0.000000
0.000000
0.000000
0.000000
0.000000

SCALARS sigma_xy FLOAT 1
LOOKUP_TABLE default
0.000000
0.000000
0.000000
0.000000
-0.000000
0.000000
-0.000000
0.000000
0.000000
0.000000
0.000000
0.000000
0.000000
0.000000
0.000000
0.000000
0.000000
0.000000
0.000000
0.000000
0.000000
0.000000
0.000000
0.000000
0.000000
0.000000
0.000000
0.000000
-0.000000
-0.000000
-0.000000
-0.000000
-0.000000
0.000000
-0.000000
0.000000
0.000000
0.000000
0.000000
0.000000
0.000000
0.000000
0.000000
0.000000
0.000000
0.000000
0.000000
-0.000000
-0.000000
0.000000
-0.000000
0.000000
0.000000
0.000000
0.000000
0.000000
0.000000
0.000000
0.000000
0.000000
0.000000
-0.000000
-0.000000
-0.000000
-0.000000
0.000000
-0.000000
0.000000
0.000000
0.000000
0.000000
0.000000
0.000000
0.000000
0.000000
0.000000
-0.000000
-0.000000
-0.000000
-0.000000
0.000000
0.000000
0.000000
0.000000
0.000000
0.000000
0.000000
0.000000
0.000000
0.000000
0.000000
0.000000
0.000000
-0.000000
0.000000
-0.000000
-0.000000
-0.000000
-0.000000
-0.000000
0.000000
0.000000
0.000000
0.000000
0.000000
0.000000
0.000000
-0.000000
-0.000000
-0.000000
-0.000000
-0.000000
0.000000
0.000000
0.000000
0.000000
-0.000000
0.000000
-0.000000
0.000000
0.000000
0.000000
0.000000
0.000000
0.000000
0.000000
0.000000
0.000000
-0.000000
-0.000000
-0.000000
-0.000000
0.000000
0.000000
0.000000
0.000000
0.000000
0.000000
-0.000000
0.000000
0.000000
0.000000
0.000000
0.000000
-0.000000
0.000000
-0.000000
0.000000
0.000000
0.000000
0.000000
0.000000
-0.000000
-0.000000
-0.000000
-0.000000
0.000000
0.000000
0.000000
0.000000
0.000000
-0.000000
-0.000000
-0.000000
-0.000000
-0.000000
-0.000000
-0.000000
-0.000000
-0.000000
-0.000000
-0.000000
-0.000000
0.000000
-0.000000
0.000000
0.000000
-0.000000
-0.000000
-0.000000
-0.000000
0.000000
-0.000000
0.000000
-0.000000
0.000000
-0.000000
0.000000
0.000000
0.000000
0.000000
0.000000
-0.000000
-0.000000
-0.000000
-0.000000
-0.000000
0.000000
-0.000000
0.000000
-0.000000
0.000000
0.000000
0.000000
0.000000
0.000000
0.000000
0.000000
0.000000
0.000000
0.000000
0.000000
0.000000
-0.000000
0.000000
0.000000
0.000000
0.000000
0.000000
0.000000
-0.000000
0.000000
-0.000000
0.000000
0.000000
0.000000
0.000000
0.000000
0.000000
-0.000000
0.000000
-0.000000
0.000000
-0.000000
0.000000
0.000000
0.000000
0.000000
0.000000
0.000000
0.000000
0.000000
0.000000
0.000000
-0.000000
-0.000000
-0.000000
-0.000000
0.000000
0.000000
0.000000
0.000000
0.000000
-0.000000
0.000000
0.000000

SCALARS sigma_yz FLOAT 1
LOOKUP_TABLE default
0.000000
0.000000
0.000000
0.000000
0.000000
0.000000
0.000000
0.000000
0.000000
0.000000
0.000000
0.000000
0.000000
0.000000
0.000000
0.000000
0.000000
0.000000
0.000000
0.000000
0.000000
0.000000
0.000000
0.000000
0.000000
0.000000
0.000000
0.000000
0.000000
0.000000
0.000000
0.000000
0.000000
0.000000
0.000000
0.000000
0.000000
0.000000
0.000000
0.000000
0.000000
0.000000
0.000000
0.000000
0.000000
0.000000
0.000000
0.000000
0.000000
0.000000
0.000000
0.000000
0.000000
0.000000
0.000000
0.000000
0.000000
0.000000
0.000000
0.000000
0.000000
0.000000
0.000000
0.000000
0.000000
0.000000
0.000000
0.000000
0.000000
0.000000
0.000000
0.000000
0.000000
0.000000
0.000000
0.000000
0.000000
0.000000
0.000000
0.000000
0.000000
0.000000
0.000000
0.000000
0.000000
0.000000
0.000000
0.000000
0.000000
0.000000
0.000000
0.000000
0.000000
0.000000
0.000000
0.000000
0.000000
0.000000
0.000000
0.000000
0.000000
0.000000
0.000000
0.000000
0.000000
0.000000
0.000000
0.000000
0.000000
0.000000
0.000000
0.000000
0.000000
0.000000
0.000000
0.000000
0.000000
0.000000
0.000000
0.000000
0.000000
0.000000
0.000000
0.000000
0.000000
0.000000
0.000000
0.000000
0.000000
0.000000
0.000000
0.000000
0.000000
0.000000
0.000000
0.000000
0.000000
0.000000
0.000000
0.000000
0.000000
0.000000
0.000000
0.000000
0.000000
0.000000
0.000000
0.000000
0.000000
0.000000
0.000000
0.000000
0.000000
0.000000
0.000000
0.000000
0.000000
0.000000
0.000000
0.000000
0.000000
0.000000
0.000000
0.000000
0.000000
0.000000
0.000000
0.000000
0.000000
0.000000
0.000000
0.000000
0.000000
0.000000
0.000000
0.000000
0.000000
0.000000
0.000000
0.000000
0.000000
0.000000
0.000000
0.000000
0.000000
0.000000
0.000000
0.000000
0.000000
0.000000
0.000000
0.000000
0.000000
0.000000
0.000000
0.000000
0.000000
0.000000
0.000000
0.000000
0.000000
0.000000
0.000000
0.000000
0.000000
0.000000
0.000000
0.000000
0.000000
0.000000
0.000000
0.000000
0.000000
0.000000
0.000000
0.000000
0.000000
0.000000
0.000000
0.000000
0.000000
0.000000
0.000000
0.000000
0.000000
0.000000
0.000000
0.000000
0.000000
0.000000
0.000000
0.000000
0.000000
0.000000
0.000000
0.000000
0.000000
0.000000
0.000000
0.000000
0.000000
0.000000
0.000000
0.000000
0.000000
0.000000
0.000000
0.000000
0.000000
0.000000
0.000000
0.000000
0.000000
0.000000
0.000000
0.000000

SCALARS sigma_zx FLOAT 1
LOOKUP_TABLE default
0.000000
0.000000
0.000000
0.000000
0.000000
0.000000
0.000000
0.000000
0.000000
0.000000
0.000000
0.000000
0.000000
0.000000
0.000000
0.000000
0.000000
0.000000
0.000000
0.000000
0.000000
0.000000
0.000000
0.000000
0.000000
0.000000
0.000000
0.000000
0.000000
0.000000
0.000000
0.000000
0.000000
0.000000
0.000000
0.000000
0.000000
0.000000
0.000000
0.000000
0.000000
0.000000
0.000000
0.000000
0.000000
0.000000
0.000000
0.000000
0.000000
0.000000
0.000000
0.000000
0.000000
0.000000
0.000000
0.000000
0.000000
0.000000
0.000000
0.000000
0.000000
0.000000
0.000000
0.000000
0.000000
0.000000
0.000000
0.000000
0.000000
0.000000
0.000000
0.000000
0.000000
0.000000
0.000000
0.000000
0.000000
0.000000
0.000000
0.000000
0.000000
0.000000
0.000000
0.000000
0.000000
0.000000
0.000000
0.000000
0.000000
0.000000
0.000000
0.000000
0.000000
0.000000
0.000000
0.000000
0.000000
0.000000
0.000000
0.000000
0.000000
0.000000
0.000000
0.000000
0.000000
0.000000
0.000000
0.000000
0.000000
0.000000
0.000000
0.000000
0.000000
0.000000
0.000000
0.000000
0.000000
0.000000
0.000000
0.000000
0.000000
0.000000
0.000000
0.000000
0.000000
0.000000
0.000000
0.000000
0.000000
0.000000
0.000000
0.000000
0.000000
0.000000
0.000000
0.000000
0.000000
0.000000
0.000000
0.000000
0.000000
0.000000
0.000000
0.000000
0.000000
0.000000
0.000000
0.000000
0.000000
0.000000
0.000000
0.000000
0.000000
0.000000
0.000000
0.000000
0.000000
0.000000
0.000000
0.000000
0.000000
0.000000
0.000000
0.000000
0.000000
0.000000
0.000000
0.000000
0.000000
0.000000
0.000000
0.000000
0.000000
0.000000
0.000000
0.000000
0.000000
0.000000
0.000000
0.000000
0.000000
0.000000
0.000000
0.000000
0.000000
0.000000
0.000000
0.000000
0.000000
0.000000
0.000000
0.000000
0.000000
0.000000
0.000000
0.000000
0.000000
0.000000
0.000000
0.000000
0.000000
0.000000
0.000000
0.000000
0.000000
0.000000
0.000000
0.000000
0.000000
0.000000
0.000000
0.000000
0.000000
0.000000
0.000000
0.000000
0.000000
0.000000
0.000000
0.000000
0.000000
0.000000
0.000000
0.000000
0.000000
0.000000
0.000000
0.000000
0.000000
0.000000
0.000000
0.000000
0.000000
0.000000
0.000000
0.000000
0.000000
0.000000
0.000000
0.000000
0.000000
0.000000
0.000000
0.000000
0.000000
0.000000
0.000000
0.000000
0.000000
0.000000
0.000000
0.000000
0.000000
0.000000
0.000000
0.000000

SCALARS u_x FLOAT 1
LOOKUP_TABLE default
0.000000
0.000000
0.000000
0.000000
0.000000
0.000000
0.000000
0.000000
0.000000
0.000000
0.000000
0.000000
0.000000
0.000000
0.000000
0.000000
0.000000
0.000000
0.000000
0.000000
0.000000
0.000000
0.000000
0.000000
0.000000
0.000000
0.000000
0.000000
0.000000
0.000000
0.000000
0.000000
0.000000
0.000000
0.000000
0.000000
0.000000
0.000000
0.000000
0.000000
0.000000
0.000000
0.000000
0.000000
0.000000
0.000000
0.000000
0.000000
0.000000
0.000000
0.000000
0.000000
0.000000
0.000000
0.000000
0.000000
0.000000
0.000000
0.000000
0.000000
0.000000
0.000000
0.000000
0.000000
0.000000
0.000000
0.000000
0.000000
0.000000
0.000000
0.000000
0.000000
0.000000
0.000000
0.000000
0.000000
0.000000
0.000000
0.000000
0.000000
0.000000
0.000000
0.000000
0.000000
0.000000
0.000000
0.000000
0.000000
0.000000
0.000000
0.000000
0.000000
0.000000
0.000000
0.000000
0.000000
0.000000
0.000000
0.000000
0.000000
0.000000
0.000000
0.000000
0.000000
0.000000
0.000000
0.000000
0.000000
0.000000
0.000000
0.000000
0.000000
0.000000
0.000000
0.000000
0.000000
0.000000
0.000000
0.000000
0.000000
0.000000
0.000000
0.000000
0.000000
0.000000
0.000000
0.000000
0.000000
0.000000
0.000000
0.000000
0.000000
0.000000
0.000000
0.000000
0.000000
0.000000
0.000000
0.000000
0.000000
0.000000
0.000000
0.000000
0.000000
0.000000
0.000000
0.000000
0.000000
0.000000
0.000000
0.000000
0.000000
0.000000
0.000000
0.000000
0.000000
0.000000
0.000000
0.000000
0.000000
0.000000
0.000000
0.000000
0.000000
0.000000
0.000000
0.000000
0.000000
0.000000
0.000000
0.000000
0.000000
0.000000
0.000000
0.000000
0.000000
0.000000
0.000000
0.000000
0.000000
0.000000
0.000000
0.000000
0.000000
0.000000
0.000000
0.000000
0.000000
0.000000
0.000000
0.000000
0.000000
0.000000
0.000000
0.000000
0.000000
0.000000
0.000000
0.000000
0.000000
0.000000
0.000000
0.000000
0.000000
0.000000
0.000000
0.000000
0.000000
0.000000
0.000000
0.000000
0.000000
0.000000
0.000000
0.000000
0.000000
0.000000
0.000000
0.000000
0.000000
0.000000
0.000000
0.000000
0.000000
0.000000
0.000000
0.000000
0.000000
0.000000
0.000000
0.000000
0.000000
0.000000
0.000000
0.000000
0.000000
0.000000
0.000000
0.000000
0.000000
0.000000
0.000000
0.000000
0.000000
0.000000
0.000000
0.000000
0.000000
0.000000
0.000000
0.000000
0.000000
0.000000
0.000000
0.000000
0.000000

SCALARS u_y FLOAT 1
LOOKUP_TABLE default
-0.080014
-0.240041
-0.080014
-0.240041
-0.399751
-0.558458
-0.399751
-0.558458
-0.716602
-0.874140
-0.716602
-0.874140
-1.030996
-1.187153
-1.030996
-1.187153
-1.342747
-1.497598
-1.342747
-1.497598
-1.651741
-1.805275
-1.651741
-1.805275
-1.958174
-2.110307
-1.958174
-2.110307
-2.261784
-2.412568
-2.261784
-2.412568
-2.562628
-2.712054
-2.562628
-2.712054
-2.860779
-3.008754
-2.860779
-3.008754
-3.155944
-3.302508
-3.155944
-3.302508
-3.448277
-3.593383
-3.448277
-3.593383
-3.737667
-3.881246
-3.737667
-3.881246
-4.023985
-4.166074
-4.023985
-4.166074
-4.307291
-4.447739
-4.307291
-4.447739
-4.587530
-4.726487
-4.587530
-4.726487
-4.864618
-5.001808
-4.864618
-5.001808
-5.138428
-5.274017
-5.138428
-5.274017
-5.408962
-5.542944
-5.408962
-5.542944
-5.676173
-5.808563
-5.676173
-5.808563
-5.939982
-6.070734
-5.939982
-6.070734
-6.200373
-6.329351
-6.200373
-6.329351
-6.457204
-6.584374
-6.457204
-6.584374
-6.710624
-6.835903
-6.710624
-6.835903
-6.960447
-7.083846
-6.960447
-7.083846
-7.206425
-7.328044
-7.206425
-7.328044
-7.448610
-7.568402
-7.448610
-7.568402
-7.686956
-7.804803
-7.686956
-7.804803
-7.921447
-8.037161
-7.921447
-8.037161
-8.151866
-8.265409
-8.151866
-8.265409
-8.378175
-8.489744
-8.378175
-8.489744
-8.600400
-8.710000
-8.600400
-8.710000
-8.818303
-8.925670
-8.818303
-8.925670
-9.031682
-9.136686
-9.031682
-9.136686
-9.240928
-9.343675
-9.240928
-9.343675
-9.445631
-9.546009
-9.445631
-9.546009
-9.645471
-9.743652
-9.645471
-9.743652
-9.840523
-9.936320
-9.840523
-9.936320
-10.030864
-10.124135
-10.030864
-10.124135
-10.216421
-10.306955
-10.216421
-10.306955
-10.396450
-10.484568
-10.396450
-10.484568
-10.571539
-10.657247
-10.571539
-10.657247
-10.741167
-10.824088
-10.741167
-10.824088
-10.905390
-10.985606
-10.905390
-10.985606
-11.064240
-11.141441
-11.064240
-11.141441
-11.217034
-11.291276
-11.217034
-11.291276
-11.363927
-11.435236
-11.363927
-11.435236
-11.504755
-11.573050
-11.504755
-11.573050
-11.639259
-11.704199
-11.639259
-11.704199
-11.767343
-11.829184
-11.767343
-11.829184
-11.889307
-11.947620
-11.889307
-11.947620
-12.004210
-12.058833
-12.004210
-12.058833
-12.111922
-12.163008
-12.111922
-12.163008
-12.212502
-12.259977
-12.212502
-12.259977
-12.305703
-12.349394
-12.305703
-12.349394
-12.391188
-12.430879
-12.391188
-12.430879
-12.468615
-12.504219
-12.468615
-12.504219
-12.537776
-12.569128
-12.537776
-12.569128
-12.598456
-12.625540
-12.598456
-12.625540
-12.650523
-12.673119
-12.650523
-12.673119
-12.693503
-12.711373
-12.693503
-12.711373
-12.727003
-12.740024
-12.727003
-12.740024
-12.750659
-12.758248
-12.750659
-12.758248
-12.764092
-12.767940
-12.764092
-12.767940

