# vtk DataFile Version 2.0
MATLAB generated vtk file, WMC
ASCII
DATASET UNSTRUCTURED_GRID
POINTS 256 double
0.195312 0.154344 0.000000 
0.195312 0.463031 0.000000 
0.585938 0.154344 0.000000 
0.585938 0.463031 0.000000 
0.195312 0.772098 0.000000 
0.195312 1.081827 0.000000 
0.585938 0.772098 0.000000 
0.585938 1.081827 0.000000 
0.195312 1.391866 0.000000 
0.195312 1.702563 0.000000 
0.585938 1.391866 0.000000 
0.585938 1.702563 0.000000 
0.195312 2.013599 0.000000 
0.195312 2.325188 0.000000 
0.585938 2.013599 0.000000 
0.585938 2.325188 0.000000 
0.195312 2.637173 0.000000 
0.195312 2.949660 0.000000 
0.585938 2.637173 0.000000 
0.585938 2.949660 0.000000 
0.195312 3.262693 0.000000 
0.195312 3.576155 0.000000 
0.585938 3.262693 0.000000 
0.585938 3.576155 0.000000 
0.195312 3.890164 0.000000 
0.195312 4.204603 0.000000 
0.585938 3.890164 0.000000 
0.585938 4.204603 0.000000 
0.195312 4.519529 0.000000 
0.195312 4.834890 0.000000 
0.585938 4.519529 0.000000 
0.585938 4.834890 0.000000 
0.195312 5.150763 0.000000 
0.195312 5.467158 0.000000 
0.585938 5.150763 0.000000 
0.585938 5.467158 0.000000 
0.195312 5.784070 0.000000 
0.195312 6.101467 0.000000 
0.585938 5.784070 0.000000 
0.585938 6.101467 0.000000 
0.195312 6.419428 0.000000 
0.195312 6.737783 0.000000 
0.585938 6.419428 0.000000 
0.585938 6.737783 0.000000 
0.195312 7.056735 0.000000 
0.195312 7.376082 0.000000 
0.585938 7.056735 0.000000 
0.585938 7.376082 0.000000 
0.195312 7.696103 0.000000 
0.195312 8.016522 0.000000 
0.585938 7.696103 0.000000 
0.585938 8.016522 0.000000 
0.195312 8.337575 0.000000 
0.195312 8.659111 0.000000 
0.585938 8.337575 0.000000 
0.585938 8.659111 0.000000 
0.195312 8.981079 0.000000 
0.195312 9.303603 0.000000 
0.585938 8.981079 0.000000 
0.585938 9.303603 0.000000 
0.195312 9.626520 0.000000 
0.195312 9.950153 0.000000 
0.585938 9.626520 0.000000 
0.585938 9.950153 0.000000 
0.195312 10.274127 0.000000 
0.195312 10.598874 0.000000 
0.585938 10.274127 0.000000 
0.585938 10.598874 0.000000 
0.195312 10.923974 0.000000 
0.195312 11.249777 0.000000 
0.585938 10.923974 0.000000 
0.585938 11.249777 0.000000 
0.195312 11.575998 0.000000 
0.195312 11.902811 0.000000 
0.585938 11.575998 0.000000 
0.585938 11.902811 0.000000 
0.195312 12.230126 0.000000 
0.195312 12.557953 0.000000 
0.585938 12.230126 0.000000 
0.585938 12.557953 0.000000 
0.195312 12.886438 0.000000 
0.195312 13.215361 0.000000 
0.585938 12.886438 0.000000 
0.585938 13.215361 0.000000 
0.195312 13.545001 0.000000 
0.195312 13.875071 0.000000 
0.585938 13.545001 0.000000 
0.585938 13.875071 0.000000 
0.195312 14.205817 0.000000 
0.195312 14.537002 0.000000 
0.585938 14.205817 0.000000 
0.585938 14.537002 0.000000 
0.195312 14.868816 0.000000 
0.195312 15.201106 0.000000 
0.585938 14.868816 0.000000 
0.585938 15.201106 0.000000 
0.195312 15.534011 0.000000 
0.195312 15.867493 0.000000 
0.585938 15.534011 0.000000 
0.585938 15.867493 0.000000 
0.195312 16.201566 0.000000 
0.195312 16.536233 0.000000 
0.585938 16.201566 0.000000 
0.585938 16.536233 0.000000 
0.195312 16.871494 0.000000 
0.195312 17.207339 0.000000 
0.585938 16.871494 0.000000 
0.585938 17.207339 0.000000 
0.195312 17.543810 0.000000 
0.195312 17.880801 0.000000 
0.585938 17.543810 0.000000 
0.585938 17.880801 0.000000 
0.195312 18.218424 0.000000 
0.195312 18.556580 0.000000 
0.585938 18.218424 0.000000 
0.585938 18.556580 0.000000 
0.195312 18.895441 0.000000 
0.195312 19.234806 0.000000 
0.585938 18.895441 0.000000 
0.585938 19.234806 0.000000 
0.195312 19.574878 0.000000 
0.195312 19.915514 0.000000 
0.585938 19.574878 0.000000 
0.585938 19.915514 0.000000 
0.195312 20.256808 0.000000 
0.195312 20.598717 0.000000 
0.585938 20.256808 0.000000 
0.585938 20.598717 0.000000 
0.195312 20.941224 0.000000 
0.195312 21.284418 0.000000 
0.585938 20.941224 0.000000 
0.585938 21.284418 0.000000 
0.195312 21.628089 0.000000 
0.195312 21.972478 0.000000 
0.585938 21.628089 0.000000 
0.585938 21.972478 0.000000 
0.195312 22.317336 0.000000 
0.195312 22.663045 0.000000 
0.585938 22.317336 0.000000 
0.585938 22.663045 0.000000 
0.195312 23.009185 0.000000 
0.195312 23.356209 0.000000 
0.585938 23.009185 0.000000 
0.585938 23.356209 0.000000 
0.195312 23.703658 0.000000 
0.195312 24.051993 0.000000 
0.585938 23.703658 0.000000 
0.585938 24.051993 0.000000 
0.195312 24.400780 0.000000 
0.195312 24.750426 0.000000 
0.585938 24.400780 0.000000 
0.585938 24.750426 0.000000 
0.195312 25.100577 0.000000 
0.195312 25.451525 0.000000 
0.585938 25.100577 0.000000 
0.585938 25.451525 0.000000 
0.195312 25.803052 0.000000 
0.195312 26.155269 0.000000 
0.585938 25.803052 0.000000 
0.585938 26.155269 0.000000 
0.195312 26.508127 0.000000 
0.195312 26.861620 0.000000 
0.585938 26.508127 0.000000 
0.585938 26.861620 0.000000 
0.195312 27.215884 0.000000 
0.195312 27.570724 0.000000 
0.585938 27.215884 0.000000 
0.585938 27.570724 0.000000 
0.195312 27.926410 0.000000 
0.195312 28.282626 0.000000 
0.585938 27.926410 0.000000 
0.585938 28.282626 0.000000 
0.195312 28.639739 0.000000 
0.195312 28.997358 0.000000 
0.585938 28.639739 0.000000 
0.585938 28.997358 0.000000 
0.195312 29.355902 0.000000 
0.195312 29.714947 0.000000 
0.585938 29.355902 0.000000 
0.585938 29.714947 0.000000 
0.195312 30.074929 0.000000 
0.195312 30.435424 0.000000 
0.585938 30.074929 0.000000 
0.585938 30.435424 0.000000 
0.195312 30.796852 0.000000 
0.195312 31.158820 0.000000 
0.585938 30.796852 0.000000 
0.585938 31.158820 0.000000 
0.195312 31.521702 0.000000 
0.195312 31.885161 0.000000 
0.585938 31.521702 0.000000 
0.585938 31.885161 0.000000 
0.195312 32.249469 0.000000 
0.195312 32.614367 0.000000 
0.585938 32.249469 0.000000 
0.585938 32.614367 0.000000 
0.195312 32.980119 0.000000 
0.195312 33.346548 0.000000 
0.585938 32.980119 0.000000 
0.585938 33.346548 0.000000 
0.195312 33.713805 0.000000 
0.195312 34.081779 0.000000 
0.585938 33.713805 0.000000 
0.585938 34.081779 0.000000 
0.195312 34.450563 0.000000 
0.195312 34.820096 0.000000 
0.585938 34.450563 0.000000 
0.585938 34.820096 0.000000 
0.195312 35.190427 0.000000 
0.195312 35.561537 0.000000 
0.585938 35.190427 0.000000 
0.585938 35.561537 0.000000 
0.195312 35.933436 0.000000 
0.195312 36.306138 0.000000 
0.585938 35.933436 0.000000 
0.585938 36.306138 0.000000 
0.195312 36.679627 0.000000 
0.195312 37.053939 0.000000 
0.585938 36.679627 0.000000 
0.585938 37.053939 0.000000 
0.195312 37.429040 0.000000 
0.195312 37.804980 0.000000 
0.585938 37.429040 0.000000 
0.585938 37.804980 0.000000 
0.195312 38.181714 0.000000 
0.195312 38.559302 0.000000 
0.585938 38.181714 0.000000 
0.585938 38.559302 0.000000 
0.195312 38.937691 0.000000 
0.195312 39.316946 0.000000 
0.585938 38.937691 0.000000 
0.585938 39.316946 0.000000 
0.195312 39.697012 0.000000 
0.195312 40.077955 0.000000 
0.585938 39.697012 0.000000 
0.585938 40.077955 0.000000 
0.195312 40.459721 0.000000 
0.195312 40.842374 0.000000 
0.585938 40.459721 0.000000 
0.585938 40.842374 0.000000 
0.195312 41.225861 0.000000 
0.195312 41.610252 0.000000 
0.585938 41.225861 0.000000 
0.585938 41.610252 0.000000 
0.195312 41.995488 0.000000 
0.195312 42.381596 0.000000 
0.585938 41.995488 0.000000 
0.585938 42.381596 0.000000 
0.195312 42.768583 0.000000 
0.195312 43.156692 0.000000 
0.585938 42.768583 0.000000 
0.585938 43.156692 0.000000 
0.195312 43.545456 0.000000 
0.195312 43.934756 0.000000 
0.585938 43.545456 0.000000 
0.585938 43.934756 0.000000 

POINT_DATA 256
SCALARS sigma_xx FLOAT 1
LOOKUP_TABLE default
0.000000
0.000000
0.000000
0.000000
0.000000
0.000000
0.000000
0.000000
0.000000
0.000000
0.000000
0.000000
0.000000
0.000000
0.000000
0.000000
0.000000
0.000000
0.000000
0.000000
0.000000
0.000000
0.000000
0.000000
0.000000
0.000000
0.000000
0.000000
0.000000
0.000000
0.000000
0.000000
0.000000
0.000000
0.000000
0.000000
0.000000
0.000000
0.000000
0.000000
0.000000
-0.000000
0.000000
-0.000000
0.000000
0.000000
0.000000
0.000000
0.000000
0.000000
0.000000
0.000000
-0.000000
0.000000
-0.000000
0.000000
0.000000
-0.000000
0.000000
-0.000000
-0.000000
0.000000
-0.000000
0.000000
0.000000
-0.000000
0.000000
-0.000000
-0.000000
0.000000
-0.000000
0.000000
0.000000
0.000000
0.000000
0.000000
0.000000
0.000000
0.000000
0.000000
0.000000
0.000000
0.000000
0.000000
0.000000
0.000000
0.000000
0.000000
0.000000
0.000000
0.000000
0.000000
0.000000
0.000000
0.000000
0.000000
-0.000000
-0.000000
-0.000000
-0.000000
0.000000
-0.000000
0.000000
0.000000
-0.000000
0.000000
-0.000000
0.000000
0.000000
0.000000
0.000000
0.000000
-0.000000
-0.000000
-0.000000
-0.000000
-0.000000
-0.000000
-0.000000
-0.000000
-0.000000
-0.000000
-0.000000
-0.000000
-0.000000
0.000000
-0.000000
-0.000000
-0.000000
-0.000000
-0.000000
-0.000000
-0.000000
0.000000
-0.000000
0.000000
-0.000000
-0.000000
-0.000000
-0.000000
-0.000000
-0.000000
-0.000000
-0.000000
-0.000000
-0.000000
-0.000000
-0.000000
-0.000000
-0.000000
0.000000
-0.000000
0.000000
0.000000
0.000000
0.000000
0.000000
0.000000
0.000000
0.000000
-0.000000
0.000000
-0.000000
0.000000
-0.000000
-0.000000
-0.000000
-0.000000
0.000000
0.000000
0.000000
-0.000000
-0.000000
-0.000000
-0.000000
-0.000000
-0.000000
0.000000
-0.000000
0.000000
0.000000
-0.000000
0.000000
-0.000000
0.000000
-0.000000
0.000000
-0.000000
0.000000
-0.000000
0.000000
-0.000000
0.000000
-0.000000
0.000000
-0.000000
-0.000000
0.000000
-0.000000
0.000000
0.000000
-0.000000
-0.000000
-0.000000
-0.000000
0.000000
-0.000000
0.000000
0.000000
-0.000000
0.000000
-0.000000
0.000000
-0.000000
0.000000
-0.000000
0.000000
-0.000000
0.000000
-0.000000
-0.000000
-0.000000
-0.000000
-0.000000
0.000000
-0.000000
0.000000
-0.000000
0.000000
0.000000
0.000000
0.000000
-0.000000
-0.000000
-0.000000
-0.000000
-0.000000
-0.000000
-0.000000
-0.000000
0.000000
-0.000000
0.000000
-0.000000
-0.000000
-0.000000
0.000000
-0.000000
0.000000
-0.000000
0.000000
-0.000000
-0.000000
-0.000000
-0.000000
-0.000000

SCALARS sigma_yy FLOAT 1
LOOKUP_TABLE default
-2979.087480
-2979.087480
-2979.087480
-2979.087480
-2934.358305
-2925.148036
-2934.358305
-2925.148036
-2890.118622
-2873.241100
-2890.118622
-2873.241100
-2845.440011
-2826.048232
-2845.440011
-2826.048232
-2800.547894
-2778.728672
-2800.547894
-2778.728672
-2750.536597
-2732.894397
-2750.536597
-2732.894397
-2701.703237
-2687.545001
-2701.703237
-2687.545001
-2656.678595
-2643.163721
-2656.678595
-2643.163721
-2609.866459
-2593.775770
-2609.866459
-2593.775770
-2562.951473
-2545.524236
-2562.951473
-2545.524236
-2515.707572
-2501.018450
-2515.707572
-2501.018450
-2467.879569
-2455.797103
-2467.879569
-2455.797103
-2416.243201
-2410.401038
-2416.243201
-2410.401038
-2365.582340
-2364.274703
-2365.582340
-2364.274703
-2323.493855
-2319.808457
-2323.493855
-2319.808457
-2278.954102
-2269.233596
-2278.954102
-2269.233596
-2234.222788
-2217.225804
-2234.222788
-2217.225804
-2189.478645
-2167.490672
-2189.478645
-2167.490672
-2144.742783
-2120.832983
-2144.742783
-2120.832983
-2099.578547
-2074.515401
-2099.578547
-2074.515401
-2049.785538
-2028.845312
-2049.785538
-2028.845312
-1999.009180
-1983.802062
-1999.009180
-1983.802062
-1950.802384
-1939.594033
-1950.802384
-1939.594033
-1904.937397
-1894.665550
-1904.937397
-1894.665550
-1858.360935
-1846.149291
-1858.360935
-1846.149291
-1811.526963
-1797.868452
-1811.526963
-1797.868452
-1764.814516
-1749.830019
-1764.814516
-1749.830019
-1717.992885
-1704.510523
-1717.992885
-1704.510523
-1671.204105
-1658.277644
-1671.204105
-1658.277644
-1621.951177
-1612.836842
-1621.951177
-1612.836842
-1573.151640
-1565.763611
-1573.151640
-1565.763611
-1525.281408
-1519.182987
-1525.281408
-1519.182987
-1477.828624
-1472.554753
-1477.828624
-1472.554753
-1434.509623
-1427.469837
-1434.509623
-1427.469837
-1389.150787
-1377.758949
-1389.150787
-1377.758949
-1343.707117
-1328.236488
-1343.707117
-1328.236488
-1298.251740
-1278.843461
-1298.251740
-1278.843461
-1252.763035
-1229.544889
-1252.763035
-1229.544889
-1207.296838
-1180.864436
-1207.296838
-1180.864436
-1161.872614
-1134.764712
-1161.872614
-1134.764712
-1116.786906
-1088.577441
-1116.786906
-1088.577441
-1068.331650
-1042.825337
-1068.331650
-1042.825337
-1019.562602
-997.123380
-1019.562602
-997.123380
-970.853609
-951.376590
-970.853609
-951.376590
-922.268744
-905.601385
-922.268744
-905.601385
-873.797675
-859.791956
-873.797675
-859.791956
-825.433299
-813.955684
-825.433299
-813.955684
-777.288623
-768.149798
-777.288623
-768.149798
-731.551391
-723.185565
-731.551391
-723.185565
-684.858552
-675.803960
-684.858552
-675.803960
-638.165637
-628.463627
-638.165637
-628.463627
-591.473211
-581.161848
-591.473211
-581.161848
-544.779876
-533.897749
-544.779876
-533.897749
-498.084301
-486.670344
-498.084301
-486.670344
-451.385075
-439.478641
-451.385075
-439.478641
-404.680745
-392.321666
-404.680745
-392.321666
-357.969723
-345.198249
-357.969723
-345.198249
-311.250701
-298.108297
-311.250701
-298.108297
-264.520383
-251.044766
-264.520383
-251.044766
-217.786616
-204.046194
-217.786616
-204.046194
-170.987746
-156.846099
-170.987746
-156.846099
-124.506188
-111.151878
-124.506188
-111.151878
-75.929234
-57.890531
-75.929234
-57.890531
-37.978127
-8.908513
-37.978127
-8.908513

SCALARS sigma_zz FLOAT 1
LOOKUP_TABLE default
0.000000
0.000000
0.000000
0.000000
0.000000
0.000000
0.000000
0.000000
0.000000
0.000000
0.000000
0.000000
0.000000
0.000000
0.000000
0.000000
0.000000
0.000000
0.000000
0.000000
0.000000
0.000000
0.000000
0.000000
0.000000
0.000000
0.000000
0.000000
0.000000
0.000000
0.000000
0.000000
0.000000
0.000000
0.000000
0.000000
0.000000
0.000000
0.000000
0.000000
0.000000
0.000000
0.000000
0.000000
0.000000
0.000000
0.000000
0.000000
0.000000
0.000000
0.000000
0.000000
0.000000
0.000000
0.000000
0.000000
0.000000
0.000000
0.000000
0.000000
0.000000
0.000000
0.000000
0.000000
0.000000
0.000000
0.000000
0.000000
0.000000
0.000000
0.000000
0.000000
0.000000
0.000000
0.000000
0.000000
0.000000
0.000000
0.000000
0.000000
0.000000
0.000000
0.000000
0.000000
0.000000
0.000000
0.000000
0.000000
0.000000
0.000000
0.000000
0.000000
0.000000
0.000000
0.000000
0.000000
0.000000
0.000000
0.000000
0.000000
0.000000
0.000000
0.000000
0.000000
0.000000
0.000000
0.000000
0.000000
0.000000
0.000000
0.000000
0.000000
0.000000
0.000000
0.000000
0.000000
0.000000
0.000000
0.000000
0.000000
0.000000
0.000000
0.000000
0.000000
0.000000
0.000000
0.000000
0.000000
0.000000
0.000000
0.000000
0.000000
0.000000
0.000000
0.000000
0.000000
0.000000
0.000000
0.000000
0.000000
0.000000
0.000000
0.000000
0.000000
0.000000
0.000000
0.000000
0.000000
0.000000
0.000000
0.000000
0.000000
0.000000
0.000000
0.000000
0.000000
0.000000
0.000000
0.000000
0.000000
0.000000
0.000000
0.000000
0.000000
0.000000
0.000000
0.000000
0.000000
0.000000
0.000000
0.000000
0.000000
0.000000
0.000000
0.000000
0.000000
0.000000
0.000000
0.000000
0.000000
0.000000
0.000000
0.000000
0.000000
0.000000
0.000000
0.000000
0.000000
0.000000
0.000000
0.000000
0.000000
0.000000
0.000000
0.000000
0.000000
0.000000
0.000000
0.000000
0.000000
0.000000
0.000000
0.000000
0.000000
0.000000
0.000000
0.000000
0.000000
0.000000
0.000000
0.000000
0.000000
0.000000
0.000000
0.000000
0.000000
0.000000
0.000000
0.000000
0.000000
0.000000
0.000000
0.000000
0.000000
0.000000
0.000000
0.000000
0.000000
0.000000
0.000000
0.000000
0.000000
0.000000
0.000000
0.000000
0.000000
0.000000
0.000000
0.000000
0.000000
0.000000
0.000000
0.000000
0.000000
0.000000
0.000000
0.000000
0.000000
0.000000
0.000000
0.000000
0.000000
0.000000
0.000000
0.000000
0.000000

SCALARS sigma_xy FLOAT 1
LOOKUP_TABLE default
0.000000
0.000000
0.000000
0.000000
0.000000
0.000000
0.000000
0.000000
0.000000
0.000000
0.000000
0.000000
0.000000
0.000000
0.000000
0.000000
0.000000
0.000000
0.000000
0.000000
0.000000
0.000000
0.000000
0.000000
0.000000
0.000000
0.000000
0.000000
0.000000
0.000000
0.000000
0.000000
0.000000
0.000000
0.000000
0.000000
0.000000
0.000000
0.000000
0.000000
0.000000
0.000000
0.000000
0.000000
0.000000
0.000000
0.000000
0.000000
0.000000
0.000000
0.000000
0.000000
-0.000000
0.000000
-0.000000
0.000000
0.000000
0.000000
0.000000
0.000000
0.000000
0.000000
0.000000
0.000000
0.000000
-0.000000
0.000000
-0.000000
-0.000000
0.000000
-0.000000
0.000000
0.000000
0.000000
0.000000
0.000000
0.000000
0.000000
0.000000
0.000000
0.000000
0.000000
0.000000
0.000000
0.000000
0.000000
0.000000
0.000000
0.000000
0.000000
0.000000
0.000000
0.000000
0.000000
0.000000
0.000000
-0.000000
0.000000
-0.000000
0.000000
0.000000
-0.000000
0.000000
0.000000
-0.000000
0.000000
-0.000000
0.000000
0.000000
0.000000
0.000000
0.000000
0.000000
0.000000
0.000000
0.000000
0.000000
0.000000
0.000000
0.000000
0.000000
0.000000
0.000000
0.000000
-0.000000
0.000000
-0.000000
0.000000
0.000000
0.000000
0.000000
0.000000
0.000000
0.000000
0.000000
0.000000
-0.000000
-0.000000
-0.000000
-0.000000
0.000000
0.000000
0.000000
0.000000
-0.000000
-0.000000
-0.000000
-0.000000
-0.000000
-0.000000
0.000000
-0.000000
0.000000
0.000000
0.000000
0.000000
0.000000
0.000000
0.000000
0.000000
0.000000
0.000000
0.000000
0.000000
-0.000000
-0.000000
-0.000000
-0.000000
0.000000
0.000000
0.000000
-0.000000
-0.000000
0.000000
-0.000000
0.000000
0.000000
0.000000
0.000000
0.000000
0.000000
0.000000
0.000000
0.000000
0.000000
-0.000000
0.000000
-0.000000
0.000000
0.000000
0.000000
0.000000
0.000000
-0.000000
0.000000
-0.000000
-0.000000
0.000000
-0.000000
0.000000
0.000000
0.000000
0.000000
0.000000
0.000000
0.000000
0.000000
0.000000
0.000000
0.000000
0.000000
0.000000
0.000000
-0.000000
0.000000
0.000000
0.000000
-0.000000
0.000000
-0.000000
-0.000000
-0.000000
-0.000000
-0.000000
0.000000
-0.000000
0.000000
-0.000000
0.000000
0.000000
0.000000
0.000000
0.000000
0.000000
0.000000
0.000000
0.000000
-0.000000
0.000000
-0.000000
0.000000
0.000000
0.000000
0.000000
0.000000
-0.000000
0.000000
-0.000000
0.000000
0.000000
0.000000
0.000000
0.000000
0.000000
0.000000
0.000000

SCALARS sigma_yz FLOAT 1
LOOKUP_TABLE default
0.000000
0.000000
0.000000
0.000000
0.000000
0.000000
0.000000
0.000000
0.000000
0.000000
0.000000
0.000000
0.000000
0.000000
0.000000
0.000000
0.000000
0.000000
0.000000
0.000000
0.000000
0.000000
0.000000
0.000000
0.000000
0.000000
0.000000
0.000000
0.000000
0.000000
0.000000
0.000000
0.000000
0.000000
0.000000
0.000000
0.000000
0.000000
0.000000
0.000000
0.000000
0.000000
0.000000
0.000000
0.000000
0.000000
0.000000
0.000000
0.000000
0.000000
0.000000
0.000000
0.000000
0.000000
0.000000
0.000000
0.000000
0.000000
0.000000
0.000000
0.000000
0.000000
0.000000
0.000000
0.000000
0.000000
0.000000
0.000000
0.000000
0.000000
0.000000
0.000000
0.000000
0.000000
0.000000
0.000000
0.000000
0.000000
0.000000
0.000000
0.000000
0.000000
0.000000
0.000000
0.000000
0.000000
0.000000
0.000000
0.000000
0.000000
0.000000
0.000000
0.000000
0.000000
0.000000
0.000000
0.000000
0.000000
0.000000
0.000000
0.000000
0.000000
0.000000
0.000000
0.000000
0.000000
0.000000
0.000000
0.000000
0.000000
0.000000
0.000000
0.000000
0.000000
0.000000
0.000000
0.000000
0.000000
0.000000
0.000000
0.000000
0.000000
0.000000
0.000000
0.000000
0.000000
0.000000
0.000000
0.000000
0.000000
0.000000
0.000000
0.000000
0.000000
0.000000
0.000000
0.000000
0.000000
0.000000
0.000000
0.000000
0.000000
0.000000
0.000000
0.000000
0.000000
0.000000
0.000000
0.000000
0.000000
0.000000
0.000000
0.000000
0.000000
0.000000
0.000000
0.000000
0.000000
0.000000
0.000000
0.000000
0.000000
0.000000
0.000000
0.000000
0.000000
0.000000
0.000000
0.000000
0.000000
0.000000
0.000000
0.000000
0.000000
0.000000
0.000000
0.000000
0.000000
0.000000
0.000000
0.000000
0.000000
0.000000
0.000000
0.000000
0.000000
0.000000
0.000000
0.000000
0.000000
0.000000
0.000000
0.000000
0.000000
0.000000
0.000000
0.000000
0.000000
0.000000
0.000000
0.000000
0.000000
0.000000
0.000000
0.000000
0.000000
0.000000
0.000000
0.000000
0.000000
0.000000
0.000000
0.000000
0.000000
0.000000
0.000000
0.000000
0.000000
0.000000
0.000000
0.000000
0.000000
0.000000
0.000000
0.000000
0.000000
0.000000
0.000000
0.000000
0.000000
0.000000
0.000000
0.000000
0.000000
0.000000
0.000000
0.000000
0.000000
0.000000
0.000000
0.000000
0.000000
0.000000
0.000000
0.000000
0.000000
0.000000
0.000000
0.000000
0.000000
0.000000
0.000000
0.000000
0.000000
0.000000
0.000000

SCALARS sigma_zx FLOAT 1
LOOKUP_TABLE default
0.000000
0.000000
0.000000
0.000000
0.000000
0.000000
0.000000
0.000000
0.000000
0.000000
0.000000
0.000000
0.000000
0.000000
0.000000
0.000000
0.000000
0.000000
0.000000
0.000000
0.000000
0.000000
0.000000
0.000000
0.000000
0.000000
0.000000
0.000000
0.000000
0.000000
0.000000
0.000000
0.000000
0.000000
0.000000
0.000000
0.000000
0.000000
0.000000
0.000000
0.000000
0.000000
0.000000
0.000000
0.000000
0.000000
0.000000
0.000000
0.000000
0.000000
0.000000
0.000000
0.000000
0.000000
0.000000
0.000000
0.000000
0.000000
0.000000
0.000000
0.000000
0.000000
0.000000
0.000000
0.000000
0.000000
0.000000
0.000000
0.000000
0.000000
0.000000
0.000000
0.000000
0.000000
0.000000
0.000000
0.000000
0.000000
0.000000
0.000000
0.000000
0.000000
0.000000
0.000000
0.000000
0.000000
0.000000
0.000000
0.000000
0.000000
0.000000
0.000000
0.000000
0.000000
0.000000
0.000000
0.000000
0.000000
0.000000
0.000000
0.000000
0.000000
0.000000
0.000000
0.000000
0.000000
0.000000
0.000000
0.000000
0.000000
0.000000
0.000000
0.000000
0.000000
0.000000
0.000000
0.000000
0.000000
0.000000
0.000000
0.000000
0.000000
0.000000
0.000000
0.000000
0.000000
0.000000
0.000000
0.000000
0.000000
0.000000
0.000000
0.000000
0.000000
0.000000
0.000000
0.000000
0.000000
0.000000
0.000000
0.000000
0.000000
0.000000
0.000000
0.000000
0.000000
0.000000
0.000000
0.000000
0.000000
0.000000
0.000000
0.000000
0.000000
0.000000
0.000000
0.000000
0.000000
0.000000
0.000000
0.000000
0.000000
0.000000
0.000000
0.000000
0.000000
0.000000
0.000000
0.000000
0.000000
0.000000
0.000000
0.000000
0.000000
0.000000
0.000000
0.000000
0.000000
0.000000
0.000000
0.000000
0.000000
0.000000
0.000000
0.000000
0.000000
0.000000
0.000000
0.000000
0.000000
0.000000
0.000000
0.000000
0.000000
0.000000
0.000000
0.000000
0.000000
0.000000
0.000000
0.000000
0.000000
0.000000
0.000000
0.000000
0.000000
0.000000
0.000000
0.000000
0.000000
0.000000
0.000000
0.000000
0.000000
0.000000
0.000000
0.000000
0.000000
0.000000
0.000000
0.000000
0.000000
0.000000
0.000000
0.000000
0.000000
0.000000
0.000000
0.000000
0.000000
0.000000
0.000000
0.000000
0.000000
0.000000
0.000000
0.000000
0.000000
0.000000
0.000000
0.000000
0.000000
0.000000
0.000000
0.000000
0.000000
0.000000
0.000000
0.000000
0.000000
0.000000
0.000000
0.000000
0.000000
0.000000
0.000000

SCALARS u_x FLOAT 1
LOOKUP_TABLE default
0.000000
0.000000
0.000000
0.000000
0.000000
0.000000
0.000000
0.000000
0.000000
0.000000
0.000000
0.000000
0.000000
0.000000
0.000000
0.000000
0.000000
0.000000
0.000000
0.000000
0.000000
0.000000
0.000000
0.000000
0.000000
0.000000
0.000000
0.000000
0.000000
0.000000
0.000000
0.000000
0.000000
0.000000
0.000000
0.000000
0.000000
0.000000
0.000000
0.000000
0.000000
0.000000
0.000000
0.000000
0.000000
0.000000
0.000000
0.000000
0.000000
0.000000
0.000000
0.000000
0.000000
0.000000
0.000000
0.000000
0.000000
0.000000
0.000000
0.000000
0.000000
0.000000
0.000000
0.000000
0.000000
0.000000
0.000000
0.000000
0.000000
0.000000
0.000000
0.000000
0.000000
0.000000
0.000000
0.000000
0.000000
0.000000
0.000000
0.000000
0.000000
0.000000
0.000000
0.000000
0.000000
0.000000
0.000000
0.000000
0.000000
0.000000
0.000000
0.000000
0.000000
0.000000
0.000000
0.000000
0.000000
0.000000
0.000000
0.000000
0.000000
0.000000
0.000000
0.000000
0.000000
0.000000
0.000000
0.000000
0.000000
0.000000
0.000000
0.000000
0.000000
0.000000
0.000000
0.000000
0.000000
0.000000
0.000000
0.000000
0.000000
0.000000
0.000000
0.000000
0.000000
0.000000
0.000000
0.000000
0.000000
0.000000
0.000000
0.000000
0.000000
0.000000
0.000000
0.000000
0.000000
0.000000
0.000000
0.000000
0.000000
0.000000
0.000000
0.000000
0.000000
0.000000
0.000000
0.000000
0.000000
0.000000
0.000000
0.000000
0.000000
0.000000
0.000000
0.000000
0.000000
0.000000
0.000000
0.000000
0.000000
0.000000
0.000000
0.000000
0.000000
0.000000
0.000000
0.000000
0.000000
0.000000
0.000000
0.000000
0.000000
0.000000
0.000000
0.000000
0.000000
0.000000
0.000000
0.000000
0.000000
0.000000
0.000000
0.000000
0.000000
0.000000
0.000000
0.000000
0.000000
0.000000
0.000000
0.000000
0.000000
0.000000
0.000000
0.000000
0.000000
0.000000
0.000000
0.000000
0.000000
0.000000
0.000000
0.000000
0.000000
0.000000
0.000000
0.000000
0.000000
0.000000
0.000000
0.000000
0.000000
0.000000
0.000000
0.000000
0.000000
0.000000
0.000000
0.000000
0.000000
0.000000
0.000000
0.000000
0.000000
0.000000
0.000000
0.000000
0.000000
0.000000
0.000000
0.000000
0.000000
0.000000
0.000000
0.000000
0.000000
0.000000
0.000000
0.000000
0.000000
0.000000
0.000000
0.000000
0.000000
0.000000
0.000000
0.000000
0.000000
0.000000
0.000000
0.000000
0.000000
0.000000
0.000000
0.000000

SCALARS u_y FLOAT 1
LOOKUP_TABLE default
-0.040969
-0.122907
-0.040969
-0.122907
-0.204465
-0.285360
-0.204465
-0.285360
-0.365946
-0.445874
-0.365946
-0.445874
-0.525464
-0.604499
-0.525464
-0.604499
-0.683139
-0.761278
-0.683139
-0.761278
-0.838869
-0.916033
-0.838869
-0.916033
-0.992648
-1.068835
-0.992648
-1.068835
-1.144534
-1.219798
-1.144534
-1.219798
-1.294550
-1.368780
-1.294550
-1.368780
-1.442493
-1.515721
-1.442493
-1.515721
-1.588385
-1.660655
-1.588385
-1.660655
-1.732327
-1.803606
-1.732327
-1.803606
-1.874209
-1.944415
-1.874209
-1.944415
-2.013987
-2.083077
-2.013987
-2.083077
-2.151734
-2.219835
-2.151734
-2.219835
-2.287542
-2.354534
-2.287542
-2.354534
-2.421186
-2.487063
-2.421186
-2.487063
-2.552589
-2.617410
-2.552589
-2.617410
-2.681815
-2.745627
-2.681815
-2.745627
-2.808937
-2.871735
-2.808937
-2.871735
-2.933875
-2.995576
-2.933875
-2.995576
-3.056561
-3.117117
-3.056561
-3.117117
-3.176995
-3.236436
-3.176995
-3.236436
-3.295247
-3.353582
-3.295247
-3.353582
-3.411302
-3.468445
-3.411302
-3.468445
-3.524997
-3.580955
-3.524997
-3.580955
-3.636318
-3.691098
-3.636318
-3.691098
-3.745252
-3.798887
-3.745252
-3.798887
-3.851889
-3.904358
-3.851889
-3.904358
-3.956122
-4.007381
-3.956122
-4.007381
-4.057934
-4.107923
-4.057934
-4.107923
-4.157255
-4.205971
-4.157255
-4.205971
-4.254089
-4.301519
-4.254089
-4.301519
-4.348473
-4.394709
-4.348473
-4.394709
-4.440477
-4.485392
-4.440477
-4.485392
-4.529878
-4.573479
-4.529878
-4.573479
-4.616654
-4.658944
-4.616654
-4.658944
-4.700783
-4.741762
-4.700783
-4.741762
-4.782236
-4.821913
-4.782236
-4.821913
-4.861011
-4.899419
-4.861011
-4.899419
-4.937186
-4.974317
-4.937186
-4.974317
-5.010679
-5.046463
-5.010679
-5.046463
-5.081403
-5.115811
-5.081403
-5.115811
-5.149324
-5.182330
-5.149324
-5.182330
-5.214411
-5.245991
-5.214411
-5.245991
-5.276633
-5.306763
-5.276633
-5.306763
-5.335960
-5.364617
-5.335960
-5.364617
-5.392361
-5.419526
-5.392361
-5.419526
-5.445843
-5.471571
-5.445843
-5.471571
-5.496443
-5.520639
-5.496443
-5.520639
-5.544007
-5.566658
-5.544007
-5.566658
-5.588500
-5.609591
-5.588500
-5.609591
-5.629885
-5.649401
-5.629885
-5.649401
-5.668126
-5.686050
-5.668126
-5.686050
-5.703185
-5.719498
-5.703185
-5.719498
-5.735022
-5.749707
-5.735022
-5.749707
-5.763598
-5.776636
-5.763598
-5.776636
-5.788871
-5.800242
-5.788871
-5.800242
-5.810800
-5.820482
-5.810800
-5.820482
-5.829341
-5.837314
-5.829341
-5.837314
-5.844451
-5.850686
-5.844451
-5.850686
-5.856074
-5.860591
-5.856074
-5.860591
-5.864229
-5.866746
-5.864229
-5.866746
-5.868606
-5.869931
-5.868606
-5.869931

