# vtk DataFile Version 2.0
MATLAB generated vtk file, WMC
ASCII
DATASET UNSTRUCTURED_GRID
POINTS 256 double
0.195312 0.068700 0.000000 
0.195312 0.206100 0.000000 
0.585938 0.068700 0.000000 
0.585938 0.206100 0.000000 
0.195312 0.343690 0.000000 
0.195312 0.481903 0.000000 
0.585938 0.343690 0.000000 
0.585938 0.481903 0.000000 
0.195312 0.620728 0.000000 
0.195312 0.760284 0.000000 
0.585938 0.620728 0.000000 
0.585938 0.760284 0.000000 
0.195312 0.900449 0.000000 
0.195312 1.041133 0.000000 
0.585938 0.900449 0.000000 
0.585938 1.041133 0.000000 
0.195312 1.182353 0.000000 
0.195312 1.324199 0.000000 
0.585938 1.182353 0.000000 
0.585938 1.324199 0.000000 
0.195312 1.466681 0.000000 
0.195312 1.609815 0.000000 
0.585938 1.466681 0.000000 
0.585938 1.609815 0.000000 
0.195312 1.753502 0.000000 
0.195312 1.897799 0.000000 
0.585938 1.753502 0.000000 
0.585938 1.897799 0.000000 
0.195312 2.042695 0.000000 
0.195312 2.188259 0.000000 
0.585938 2.042695 0.000000 
0.585938 2.188259 0.000000 
0.195312 2.334488 0.000000 
0.195312 2.481371 0.000000 
0.585938 2.334488 0.000000 
0.585938 2.481371 0.000000 
0.195312 2.628879 0.000000 
0.195312 2.777040 0.000000 
0.585938 2.628879 0.000000 
0.585938 2.777040 0.000000 
0.195312 2.925911 0.000000 
0.195312 3.075493 0.000000 
0.585938 2.925911 0.000000 
0.585938 3.075493 0.000000 
0.195312 3.225782 0.000000 
0.195312 3.376703 0.000000 
0.585938 3.225782 0.000000 
0.585938 3.376703 0.000000 
0.195312 3.528323 0.000000 
0.195312 3.680653 0.000000 
0.585938 3.528323 0.000000 
0.585938 3.680653 0.000000 
0.195312 3.833744 0.000000 
0.195312 3.987530 0.000000 
0.585938 3.833744 0.000000 
0.585938 3.987530 0.000000 
0.195312 4.142089 0.000000 
0.195312 4.297384 0.000000 
0.585938 4.142089 0.000000 
0.585938 4.297384 0.000000 
0.195312 4.453412 0.000000 
0.195312 4.610234 0.000000 
0.585938 4.453412 0.000000 
0.585938 4.610234 0.000000 
0.195312 4.767850 0.000000 
0.195312 4.926273 0.000000 
0.585938 4.767850 0.000000 
0.585938 4.926273 0.000000 
0.195312 5.085383 0.000000 
0.195312 5.245387 0.000000 
0.585938 5.085383 0.000000 
0.585938 5.245387 0.000000 
0.195312 5.406190 0.000000 
0.195312 5.567869 0.000000 
0.585938 5.406190 0.000000 
0.585938 5.567869 0.000000 
0.195312 5.730326 0.000000 
0.195312 5.893632 0.000000 
0.585938 5.730326 0.000000 
0.585938 5.893632 0.000000 
0.195312 6.057850 0.000000 
0.195312 6.222842 0.000000 
0.585938 6.057850 0.000000 
0.585938 6.222842 0.000000 
0.195312 6.388801 0.000000 
0.195312 6.555540 0.000000 
0.585938 6.388801 0.000000 
0.585938 6.555540 0.000000 
0.195312 6.723310 0.000000 
0.195312 6.891934 0.000000 
0.585938 6.723310 0.000000 
0.585938 6.891934 0.000000 
0.195312 7.061540 0.000000 
0.195312 7.232091 0.000000 
0.585938 7.061540 0.000000 
0.585938 7.232091 0.000000 
0.195312 7.403555 0.000000 
0.195312 7.576085 0.000000 
0.585938 7.403555 0.000000 
0.585938 7.576085 0.000000 
0.195312 7.749559 0.000000 
0.195312 7.924023 0.000000 
0.585938 7.749559 0.000000 
0.585938 7.924023 0.000000 
0.195312 8.099526 0.000000 
0.195312 8.275945 0.000000 
0.585938 8.099526 0.000000 
0.585938 8.275945 0.000000 
0.195312 8.453529 0.000000 
0.195312 8.632126 0.000000 
0.585938 8.453529 0.000000 
0.585938 8.632126 0.000000 
0.195312 8.811874 0.000000 
0.195312 8.992700 0.000000 
0.585938 8.811874 0.000000 
0.585938 8.992700 0.000000 
0.195312 9.174635 0.000000 
0.195312 9.357751 0.000000 
0.585938 9.174635 0.000000 
0.585938 9.357751 0.000000 
0.195312 9.541995 0.000000 
0.195312 9.727420 0.000000 
0.585938 9.541995 0.000000 
0.585938 9.727420 0.000000 
0.195312 9.913961 0.000000 
0.195312 10.101751 0.000000 
0.585938 9.913961 0.000000 
0.585938 10.101751 0.000000 
0.195312 10.290842 0.000000 
0.195312 10.481058 0.000000 
0.585938 10.290842 0.000000 
0.585938 10.481058 0.000000 
0.195312 10.672663 0.000000 
0.195312 10.865498 0.000000 
0.585938 10.672663 0.000000 
0.585938 10.865498 0.000000 
0.195312 11.059624 0.000000 
0.195312 11.255229 0.000000 
0.585938 11.059624 0.000000 
0.585938 11.255229 0.000000 
0.195312 11.452036 0.000000 
0.195312 11.650409 0.000000 
0.585938 11.452036 0.000000 
0.585938 11.650409 0.000000 
0.195312 11.850090 0.000000 
0.195312 12.051199 0.000000 
0.585938 11.850090 0.000000 
0.585938 12.051199 0.000000 
0.195312 12.253727 0.000000 
0.195312 12.457744 0.000000 
0.585938 12.253727 0.000000 
0.585938 12.457744 0.000000 
0.195312 12.663361 0.000000 
0.195312 12.870600 0.000000 
0.585938 12.663361 0.000000 
0.585938 12.870600 0.000000 
0.195312 13.079387 0.000000 
0.195312 13.289988 0.000000 
0.585938 13.079387 0.000000 
0.585938 13.289988 0.000000 
0.195312 13.502070 0.000000 
0.195312 13.715892 0.000000 
0.585938 13.502070 0.000000 
0.585938 13.715892 0.000000 
0.195312 13.931254 0.000000 
0.195312 14.148420 0.000000 
0.585938 13.931254 0.000000 
0.585938 14.148420 0.000000 
0.195312 14.367578 0.000000 
0.195312 14.588403 0.000000 
0.585938 14.367578 0.000000 
0.585938 14.588403 0.000000 
0.195312 14.811462 0.000000 
0.195312 15.036198 0.000000 
0.585938 14.811462 0.000000 
0.585938 15.036198 0.000000 
0.195312 15.262917 0.000000 
0.195312 15.491512 0.000000 
0.585938 15.262917 0.000000 
0.585938 15.491512 0.000000 
0.195312 15.722310 0.000000 
0.195312 15.955158 0.000000 
0.585938 15.722310 0.000000 
0.585938 15.955158 0.000000 
0.195312 16.190190 0.000000 
0.195312 16.427536 0.000000 
0.585938 16.190190 0.000000 
0.585938 16.427536 0.000000 
0.195312 16.667271 0.000000 
0.195312 16.909042 0.000000 
0.585938 16.667271 0.000000 
0.585938 16.909042 0.000000 
0.195312 17.153544 0.000000 
0.195312 17.400262 0.000000 
0.585938 17.153544 0.000000 
0.585938 17.400262 0.000000 
0.195312 17.649684 0.000000 
0.195312 17.901455 0.000000 
0.585938 17.649684 0.000000 
0.585938 17.901455 0.000000 
0.195312 18.156135 0.000000 
0.195312 18.413763 0.000000 
0.585938 18.156135 0.000000 
0.585938 18.413763 0.000000 
0.195312 18.674009 0.000000 
0.195312 18.937292 0.000000 
0.585938 18.674009 0.000000 
0.585938 18.937292 0.000000 
0.195312 19.203398 0.000000 
0.195312 19.472947 0.000000 
0.585938 19.203398 0.000000 
0.585938 19.472947 0.000000 
0.195312 19.745366 0.000000 
0.195312 20.021170 0.000000 
0.585938 19.745366 0.000000 
0.585938 20.021170 0.000000 
0.195312 20.300534 0.000000 
0.195312 20.583359 0.000000 
0.585938 20.300534 0.000000 
0.585938 20.583359 0.000000 
0.195312 20.870313 0.000000 
0.195312 21.160954 0.000000 
0.585938 20.870313 0.000000 
0.585938 21.160954 0.000000 
0.195312 21.455446 0.000000 
0.195312 21.753656 0.000000 
0.585938 21.455446 0.000000 
0.585938 21.753656 0.000000 
0.195312 22.056317 0.000000 
0.195312 22.363829 0.000000 
0.585938 22.056317 0.000000 
0.585938 22.363829 0.000000 
0.195312 22.676259 0.000000 
0.195312 22.993474 0.000000 
0.585938 22.676259 0.000000 
0.585938 22.993474 0.000000 
0.195312 23.315174 0.000000 
0.195312 23.642611 0.000000 
0.585938 23.315174 0.000000 
0.585938 23.642611 0.000000 
0.195312 23.975016 0.000000 
0.195312 24.314033 0.000000 
0.585938 23.975016 0.000000 
0.585938 24.314033 0.000000 
0.195312 24.658800 0.000000 
0.195312 25.010804 0.000000 
0.585938 24.658800 0.000000 
0.585938 25.010804 0.000000 
0.195312 25.368937 0.000000 
0.195312 25.735751 0.000000 
0.585938 25.368937 0.000000 
0.585938 25.735751 0.000000 
0.195312 26.108659 0.000000 
0.195312 26.488477 0.000000 
0.585938 26.108659 0.000000 
0.585938 26.488477 0.000000 

POINT_DATA 256
SCALARS sigma_xx FLOAT 1
LOOKUP_TABLE default
0.000000
0.000000
0.000000
0.000000
0.000000
-0.000000
0.000000
-0.000000
-0.000000
-0.000000
-0.000000
-0.000000
-0.000000
-0.000000
-0.000000
-0.000000
-0.000000
0.000000
-0.000000
0.000000
-0.000000
-0.000000
-0.000000
-0.000000
-0.000000
-0.000000
-0.000000
-0.000000
-0.000000
-0.000000
-0.000000
-0.000000
-0.000000
-0.000000
-0.000000
-0.000000
0.000000
-0.000000
0.000000
-0.000000
0.000000
-0.000000
-0.000000
-0.000000
-0.000000
-0.000000
-0.000000
-0.000000
-0.000000
-0.000000
-0.000000
-0.000000
-0.000000
-0.000000
-0.000000
-0.000000
-0.000000
-0.000000
-0.000000
-0.000000
-0.000000
-0.000000
-0.000000
-0.000000
-0.000000
-0.000000
-0.000000
-0.000000
-0.000000
-0.000000
-0.000000
-0.000000
-0.000000
-0.000000
-0.000000
-0.000000
-0.000000
0.000000
-0.000000
0.000000
-0.000000
-0.000000
-0.000000
-0.000000
-0.000000
-0.000000
-0.000000
-0.000000
-0.000000
-0.000000
-0.000000
-0.000000
-0.000000
-0.000000
-0.000000
-0.000000
-0.000000
-0.000000
0.000000
-0.000000
-0.000000
-0.000000
-0.000000
-0.000000
-0.000000
-0.000000
-0.000000
-0.000000
-0.000000
-0.000000
-0.000000
-0.000000
-0.000000
-0.000000
-0.000000
-0.000000
-0.000000
-0.000000
-0.000000
-0.000000
-0.000000
-0.000000
-0.000000
-0.000000
-0.000000
-0.000000
-0.000000
-0.000000
-0.000000
-0.000000
-0.000000
-0.000000
-0.000000
-0.000000
-0.000000
-0.000000
-0.000000
-0.000000
-0.000000
-0.000000
-0.000000
-0.000000
-0.000000
-0.000000
-0.000000
-0.000000
-0.000000
-0.000000
-0.000000
-0.000000
-0.000000
-0.000000
-0.000000
-0.000000
-0.000000
-0.000000
-0.000000
-0.000000
-0.000000
-0.000000
-0.000000
-0.000000
-0.000000
-0.000000
-0.000000
-0.000000
-0.000000
-0.000000
-0.000000
-0.000000
-0.000000
-0.000000
-0.000000
-0.000000
-0.000000
-0.000000
-0.000000
-0.000000
-0.000000
-0.000000
-0.000000
-0.000000
-0.000000
-0.000000
-0.000000
-0.000000
-0.000000
-0.000000
-0.000000
-0.000000
-0.000000
-0.000000
-0.000000
-0.000000
-0.000000
-0.000000
-0.000000
-0.000000
-0.000000
-0.000000
-0.000000
-0.000000
-0.000000
-0.000000
-0.000000
-0.000000
-0.000000
-0.000000
-0.000000
-0.000000
-0.000000
-0.000000
-0.000000
-0.000000
-0.000000
-0.000000
-0.000000
-0.000000
-0.000000
-0.000000
-0.000000
0.000000
-0.000000
-0.000000
-0.000000
0.000000
-0.000000
0.000000
-0.000000
-0.000000
-0.000000
-0.000000
-0.000000
-0.000000
-0.000000
0.000000
-0.000000
-0.000000
-0.000000
-0.000000
0.000000
-0.000000
0.000000
0.000000
-0.000000
0.000000
-0.000000
0.000000
-0.000000
0.000000
0.000000
0.000000
-0.000000
0.000000
-0.000000
0.000000

SCALARS sigma_yy FLOAT 1
LOOKUP_TABLE default
-29704.859410
-29704.859410
-29704.859410
-29704.859410
-29494.124921
-29250.688371
-29494.124921
-29250.688371
-28950.516998
-28684.141294
-28950.516998
-28684.141294
-28448.093447
-28262.731987
-28448.093447
-28262.731987
-28015.220856
-27781.547624
-28015.220856
-27781.547624
-27512.994991
-27302.174153
-27512.994991
-27302.174153
-27068.710726
-26855.877333
-27068.710726
-26855.877333
-26608.033622
-26375.019451
-26608.033622
-26375.019451
-26113.689931
-25911.533196
-26113.689931
-25911.533196
-25665.724886
-25451.865255
-25665.724886
-25451.865255
-25182.918512
-24950.683476
-25182.918512
-24950.683476
-24704.382992
-24516.341625
-24704.382992
-24516.341625
-24257.923533
-24038.169797
-24257.923533
-24038.169797
-23773.084023
-23565.124342
-23773.084023
-23565.124342
-23307.709754
-23101.610478
-23307.709754
-23101.610478
-22837.636967
-22622.003808
-22837.636967
-22622.003808
-22373.587835
-22145.929588
-22373.587835
-22145.929588
-21920.111425
-21685.997844
-21920.111425
-21685.997844
-21433.424922
-21203.659878
-21433.424922
-21203.659878
-20975.504582
-20748.945810
-20975.504582
-20748.945810
-20491.862005
-20287.227930
-20491.862005
-20287.227930
-20042.633990
-19821.254772
-20042.633990
-19821.254772
-19551.734825
-19351.181478
-19551.734825
-19351.181478
-19087.555141
-18872.914519
-19087.555141
-18872.914519
-18632.630936
-18389.614078
-18632.630936
-18389.614078
-18156.876085
-17934.625894
-18156.876085
-17934.625894
-17694.439335
-17480.214746
-17694.439335
-17480.214746
-17230.090840
-17000.290671
-17230.090840
-17000.290671
-16741.141203
-16531.826495
-16741.141203
-16531.826495
-16273.069517
-16050.245881
-16273.069517
-16050.245881
-15812.242110
-15594.114557
-15812.242110
-15594.114557
-15342.819005
-15130.150756
-15342.819005
-15130.150756
-14865.697303
-14668.226912
-14865.697303
-14668.226912
-14397.945419
-14186.456096
-14397.945419
-14186.456096
-13934.120642
-13721.437209
-13934.120642
-13721.437209
-13471.161402
-13236.581427
-13471.161402
-13236.581427
-13006.811281
-12783.967556
-13006.811281
-12783.967556
-12553.017277
-12324.604011
-12553.017277
-12324.604011
-12059.172835
-11836.580011
-12059.172835
-11836.580011
-11593.352606
-11343.571305
-11593.352606
-11343.571305
-11142.376311
-10898.519797
-11142.376311
-10898.519797
-10685.273288
-10425.576220
-10685.273288
-10425.576220
-10202.352154
-9946.137611
-10202.352154
-9946.137611
-9707.635231
-9493.355144
-9707.635231
-9493.355144
-9260.212285
-9031.170734
-9260.212285
-9031.170734
-8799.637067
-8556.499415
-8799.637067
-8556.499415
-8329.059526
-8073.781113
-8329.059526
-8073.781113
-7851.130392
-7624.692599
-7851.130392
-7624.692599
-7369.316920
-7165.172667
-7369.316920
-7165.172667
-6905.285117
-6701.586086
-6905.285117
-6701.586086
-6422.796380
-6210.522622
-6422.796380
-6210.522622
-5971.025108
-5748.556735
-5971.025108
-5748.556735
-5510.262650
-5266.516723
-5510.262650
-5266.516723
-5045.470962
-4813.081125
-5045.470962
-4813.081125
-4574.835989
-4333.297742
-4574.835989
-4333.297742
-4072.119283
-3869.655478
-4072.119283
-3869.655478
-3634.001422
-3431.553304
-3634.001422
-3431.553304
-3158.599430
-2921.330203
-3158.599430
-2921.330203
-2664.247718
-2473.022490
-2664.247718
-2473.022490
-2225.566353
-2009.602885
-2225.566353
-2009.602885
-1764.705374
-1526.078808
-1764.705374
-1526.078808
-1284.021376
-1048.741181
-1284.021376
-1048.741181
-820.497954
-566.397814
-820.497954
-566.397814
-366.075733
-102.004273
-366.075733
-102.004273

SCALARS sigma_zz FLOAT 1
LOOKUP_TABLE default
0.000000
0.000000
0.000000
0.000000
0.000000
0.000000
0.000000
0.000000
0.000000
0.000000
0.000000
0.000000
0.000000
0.000000
0.000000
0.000000
0.000000
0.000000
0.000000
0.000000
0.000000
0.000000
0.000000
0.000000
0.000000
0.000000
0.000000
0.000000
0.000000
0.000000
0.000000
0.000000
0.000000
0.000000
0.000000
0.000000
0.000000
0.000000
0.000000
0.000000
0.000000
0.000000
0.000000
0.000000
0.000000
0.000000
0.000000
0.000000
0.000000
0.000000
0.000000
0.000000
0.000000
0.000000
0.000000
0.000000
0.000000
0.000000
0.000000
0.000000
0.000000
0.000000
0.000000
0.000000
0.000000
0.000000
0.000000
0.000000
0.000000
0.000000
0.000000
0.000000
0.000000
0.000000
0.000000
0.000000
0.000000
0.000000
0.000000
0.000000
0.000000
0.000000
0.000000
0.000000
0.000000
0.000000
0.000000
0.000000
0.000000
0.000000
0.000000
0.000000
0.000000
0.000000
0.000000
0.000000
0.000000
0.000000
0.000000
0.000000
0.000000
0.000000
0.000000
0.000000
0.000000
0.000000
0.000000
0.000000
0.000000
0.000000
0.000000
0.000000
0.000000
0.000000
0.000000
0.000000
0.000000
0.000000
0.000000
0.000000
0.000000
0.000000
0.000000
0.000000
0.000000
0.000000
0.000000
0.000000
0.000000
0.000000
0.000000
0.000000
0.000000
0.000000
0.000000
0.000000
0.000000
0.000000
0.000000
0.000000
0.000000
0.000000
0.000000
0.000000
0.000000
0.000000
0.000000
0.000000
0.000000
0.000000
0.000000
0.000000
0.000000
0.000000
0.000000
0.000000
0.000000
0.000000
0.000000
0.000000
0.000000
0.000000
0.000000
0.000000
0.000000
0.000000
0.000000
0.000000
0.000000
0.000000
0.000000
0.000000
0.000000
0.000000
0.000000
0.000000
0.000000
0.000000
0.000000
0.000000
0.000000
0.000000
0.000000
0.000000
0.000000
0.000000
0.000000
0.000000
0.000000
0.000000
0.000000
0.000000
0.000000
0.000000
0.000000
0.000000
0.000000
0.000000
0.000000
0.000000
0.000000
0.000000
0.000000
0.000000
0.000000
0.000000
0.000000
0.000000
0.000000
0.000000
0.000000
0.000000
0.000000
0.000000
0.000000
0.000000
0.000000
0.000000
0.000000
0.000000
0.000000
0.000000
0.000000
0.000000
0.000000
0.000000
0.000000
0.000000
0.000000
0.000000
0.000000
0.000000
0.000000
0.000000
0.000000
0.000000
0.000000
0.000000
0.000000
0.000000
0.000000
0.000000
0.000000
0.000000
0.000000
0.000000
0.000000
0.000000
0.000000
0.000000
0.000000
0.000000
0.000000
0.000000
0.000000
0.000000

SCALARS sigma_xy FLOAT 1
LOOKUP_TABLE default
0.000000
0.000000
0.000000
0.000000
0.000000
-0.000000
0.000000
-0.000000
-0.000000
-0.000000
-0.000000
-0.000000
-0.000000
-0.000000
-0.000000
-0.000000
0.000000
0.000000
0.000000
0.000000
-0.000000
-0.000000
-0.000000
-0.000000
-0.000000
-0.000000
-0.000000
-0.000000
-0.000000
0.000000
-0.000000
0.000000
0.000000
0.000000
0.000000
0.000000
0.000000
-0.000000
0.000000
-0.000000
0.000000
-0.000000
-0.000000
-0.000000
-0.000000
-0.000000
-0.000000
-0.000000
-0.000000
-0.000000
-0.000000
-0.000000
0.000000
0.000000
0.000000
0.000000
0.000000
0.000000
0.000000
0.000000
0.000000
-0.000000
0.000000
-0.000000
0.000000
-0.000000
0.000000
-0.000000
-0.000000
-0.000000
-0.000000
-0.000000
-0.000000
0.000000
-0.000000
0.000000
-0.000000
0.000000
-0.000000
0.000000
0.000000
0.000000
0.000000
0.000000
0.000000
0.000000
0.000000
0.000000
0.000000
-0.000000
0.000000
-0.000000
-0.000000
-0.000000
-0.000000
-0.000000
-0.000000
0.000000
0.000000
0.000000
0.000000
0.000000
0.000000
0.000000
-0.000000
-0.000000
-0.000000
-0.000000
-0.000000
-0.000000
-0.000000
-0.000000
0.000000
0.000000
0.000000
0.000000
0.000000
0.000000
0.000000
0.000000
-0.000000
-0.000000
-0.000000
-0.000000
-0.000000
-0.000000
-0.000000
-0.000000
-0.000000
0.000000
-0.000000
0.000000
0.000000
0.000000
0.000000
0.000000
-0.000000
-0.000000
-0.000000
-0.000000
-0.000000
-0.000000
-0.000000
-0.000000
-0.000000
0.000000
-0.000000
0.000000
0.000000
0.000000
0.000000
0.000000
0.000000
-0.000000
0.000000
-0.000000
-0.000000
-0.000000
-0.000000
-0.000000
-0.000000
-0.000000
-0.000000
-0.000000
-0.000000
0.000000
-0.000000
0.000000
0.000000
0.000000
0.000000
0.000000
-0.000000
0.000000
-0.000000
0.000000
-0.000000
-0.000000
-0.000000
-0.000000
-0.000000
0.000000
-0.000000
0.000000
0.000000
0.000000
0.000000
0.000000
0.000000
-0.000000
0.000000
-0.000000
-0.000000
-0.000000
-0.000000
-0.000000
0.000000
0.000000
0.000000
0.000000
0.000000
-0.000000
0.000000
-0.000000
-0.000000
-0.000000
-0.000000
-0.000000
0.000000
0.000000
0.000000
0.000000
0.000000
-0.000000
0.000000
0.000000
-0.000000
0.000000
-0.000000
0.000000
-0.000000
0.000000
-0.000000
0.000000
0.000000
0.000000
0.000000
0.000000
-0.000000
-0.000000
-0.000000
-0.000000
0.000000
-0.000000
0.000000
0.000000
0.000000
0.000000
0.000000
0.000000
0.000000
0.000000
0.000000
0.000000
-0.000000
0.000000
-0.000000
0.000000
0.000000
0.000000
0.000000
0.000000
-0.000000
0.000000
-0.000000
0.000000

SCALARS sigma_yz FLOAT 1
LOOKUP_TABLE default
0.000000
0.000000
0.000000
0.000000
0.000000
0.000000
0.000000
0.000000
0.000000
0.000000
0.000000
0.000000
0.000000
0.000000
0.000000
0.000000
0.000000
0.000000
0.000000
0.000000
0.000000
0.000000
0.000000
0.000000
0.000000
0.000000
0.000000
0.000000
0.000000
0.000000
0.000000
0.000000
0.000000
0.000000
0.000000
0.000000
0.000000
0.000000
0.000000
0.000000
0.000000
0.000000
0.000000
0.000000
0.000000
0.000000
0.000000
0.000000
0.000000
0.000000
0.000000
0.000000
0.000000
0.000000
0.000000
0.000000
0.000000
0.000000
0.000000
0.000000
0.000000
0.000000
0.000000
0.000000
0.000000
0.000000
0.000000
0.000000
0.000000
0.000000
0.000000
0.000000
0.000000
0.000000
0.000000
0.000000
0.000000
0.000000
0.000000
0.000000
0.000000
0.000000
0.000000
0.000000
0.000000
0.000000
0.000000
0.000000
0.000000
0.000000
0.000000
0.000000
0.000000
0.000000
0.000000
0.000000
0.000000
0.000000
0.000000
0.000000
0.000000
0.000000
0.000000
0.000000
0.000000
0.000000
0.000000
0.000000
0.000000
0.000000
0.000000
0.000000
0.000000
0.000000
0.000000
0.000000
0.000000
0.000000
0.000000
0.000000
0.000000
0.000000
0.000000
0.000000
0.000000
0.000000
0.000000
0.000000
0.000000
0.000000
0.000000
0.000000
0.000000
0.000000
0.000000
0.000000
0.000000
0.000000
0.000000
0.000000
0.000000
0.000000
0.000000
0.000000
0.000000
0.000000
0.000000
0.000000
0.000000
0.000000
0.000000
0.000000
0.000000
0.000000
0.000000
0.000000
0.000000
0.000000
0.000000
0.000000
0.000000
0.000000
0.000000
0.000000
0.000000
0.000000
0.000000
0.000000
0.000000
0.000000
0.000000
0.000000
0.000000
0.000000
0.000000
0.000000
0.000000
0.000000
0.000000
0.000000
0.000000
0.000000
0.000000
0.000000
0.000000
0.000000
0.000000
0.000000
0.000000
0.000000
0.000000
0.000000
0.000000
0.000000
0.000000
0.000000
0.000000
0.000000
0.000000
0.000000
0.000000
0.000000
0.000000
0.000000
0.000000
0.000000
0.000000
0.000000
0.000000
0.000000
0.000000
0.000000
0.000000
0.000000
0.000000
0.000000
0.000000
0.000000
0.000000
0.000000
0.000000
0.000000
0.000000
0.000000
0.000000
0.000000
0.000000
0.000000
0.000000
0.000000
0.000000
0.000000
0.000000
0.000000
0.000000
0.000000
0.000000
0.000000
0.000000
0.000000
0.000000
0.000000
0.000000
0.000000
0.000000
0.000000
0.000000
0.000000
0.000000
0.000000
0.000000
0.000000
0.000000
0.000000
0.000000
0.000000

SCALARS sigma_zx FLOAT 1
LOOKUP_TABLE default
0.000000
0.000000
0.000000
0.000000
0.000000
0.000000
0.000000
0.000000
0.000000
0.000000
0.000000
0.000000
0.000000
0.000000
0.000000
0.000000
0.000000
0.000000
0.000000
0.000000
0.000000
0.000000
0.000000
0.000000
0.000000
0.000000
0.000000
0.000000
0.000000
0.000000
0.000000
0.000000
0.000000
0.000000
0.000000
0.000000
0.000000
0.000000
0.000000
0.000000
0.000000
0.000000
0.000000
0.000000
0.000000
0.000000
0.000000
0.000000
0.000000
0.000000
0.000000
0.000000
0.000000
0.000000
0.000000
0.000000
0.000000
0.000000
0.000000
0.000000
0.000000
0.000000
0.000000
0.000000
0.000000
0.000000
0.000000
0.000000
0.000000
0.000000
0.000000
0.000000
0.000000
0.000000
0.000000
0.000000
0.000000
0.000000
0.000000
0.000000
0.000000
0.000000
0.000000
0.000000
0.000000
0.000000
0.000000
0.000000
0.000000
0.000000
0.000000
0.000000
0.000000
0.000000
0.000000
0.000000
0.000000
0.000000
0.000000
0.000000
0.000000
0.000000
0.000000
0.000000
0.000000
0.000000
0.000000
0.000000
0.000000
0.000000
0.000000
0.000000
0.000000
0.000000
0.000000
0.000000
0.000000
0.000000
0.000000
0.000000
0.000000
0.000000
0.000000
0.000000
0.000000
0.000000
0.000000
0.000000
0.000000
0.000000
0.000000
0.000000
0.000000
0.000000
0.000000
0.000000
0.000000
0.000000
0.000000
0.000000
0.000000
0.000000
0.000000
0.000000
0.000000
0.000000
0.000000
0.000000
0.000000
0.000000
0.000000
0.000000
0.000000
0.000000
0.000000
0.000000
0.000000
0.000000
0.000000
0.000000
0.000000
0.000000
0.000000
0.000000
0.000000
0.000000
0.000000
0.000000
0.000000
0.000000
0.000000
0.000000
0.000000
0.000000
0.000000
0.000000
0.000000
0.000000
0.000000
0.000000
0.000000
0.000000
0.000000
0.000000
0.000000
0.000000
0.000000
0.000000
0.000000
0.000000
0.000000
0.000000
0.000000
0.000000
0.000000
0.000000
0.000000
0.000000
0.000000
0.000000
0.000000
0.000000
0.000000
0.000000
0.000000
0.000000
0.000000
0.000000
0.000000
0.000000
0.000000
0.000000
0.000000
0.000000
0.000000
0.000000
0.000000
0.000000
0.000000
0.000000
0.000000
0.000000
0.000000
0.000000
0.000000
0.000000
0.000000
0.000000
0.000000
0.000000
0.000000
0.000000
0.000000
0.000000
0.000000
0.000000
0.000000
0.000000
0.000000
0.000000
0.000000
0.000000
0.000000
0.000000
0.000000
0.000000
0.000000
0.000000
0.000000
0.000000
0.000000
0.000000
0.000000
0.000000
0.000000
0.000000

SCALARS u_x FLOAT 1
LOOKUP_TABLE default
0.000000
0.000000
0.000000
0.000000
0.000000
0.000000
0.000000
0.000000
0.000000
0.000000
0.000000
0.000000
0.000000
0.000000
0.000000
0.000000
0.000000
0.000000
0.000000
0.000000
0.000000
0.000000
0.000000
0.000000
0.000000
0.000000
0.000000
0.000000
0.000000
0.000000
0.000000
0.000000
0.000000
0.000000
0.000000
0.000000
0.000000
0.000000
0.000000
0.000000
0.000000
0.000000
0.000000
0.000000
0.000000
0.000000
0.000000
0.000000
0.000000
0.000000
0.000000
0.000000
0.000000
0.000000
0.000000
0.000000
0.000000
0.000000
0.000000
0.000000
0.000000
0.000000
0.000000
0.000000
0.000000
0.000000
0.000000
0.000000
0.000000
0.000000
0.000000
0.000000
0.000000
0.000000
0.000000
0.000000
0.000000
0.000000
0.000000
0.000000
0.000000
0.000000
0.000000
0.000000
0.000000
0.000000
0.000000
0.000000
0.000000
0.000000
0.000000
0.000000
0.000000
0.000000
0.000000
0.000000
0.000000
0.000000
0.000000
0.000000
0.000000
0.000000
0.000000
0.000000
0.000000
0.000000
0.000000
0.000000
0.000000
0.000000
0.000000
0.000000
0.000000
0.000000
0.000000
0.000000
0.000000
0.000000
0.000000
0.000000
0.000000
0.000000
0.000000
0.000000
0.000000
0.000000
0.000000
0.000000
0.000000
0.000000
0.000000
0.000000
0.000000
0.000000
0.000000
0.000000
0.000000
0.000000
0.000000
0.000000
0.000000
0.000000
0.000000
0.000000
0.000000
0.000000
0.000000
0.000000
0.000000
0.000000
0.000000
0.000000
0.000000
0.000000
0.000000
0.000000
0.000000
0.000000
0.000000
0.000000
0.000000
0.000000
0.000000
0.000000
0.000000
0.000000
0.000000
0.000000
0.000000
0.000000
0.000000
0.000000
0.000000
0.000000
0.000000
0.000000
0.000000
0.000000
0.000000
0.000000
0.000000
0.000000
0.000000
0.000000
0.000000
0.000000
0.000000
0.000000
0.000000
0.000000
0.000000
0.000000
0.000000
0.000000
0.000000
0.000000
0.000000
0.000000
0.000000
0.000000
0.000000
0.000000
0.000000
0.000000
0.000000
0.000000
0.000000
0.000000
0.000000
0.000000
0.000000
0.000000
0.000000
0.000000
0.000000
0.000000
0.000000
0.000000
0.000000
0.000000
0.000000
0.000000
0.000000
0.000000
0.000000
0.000000
0.000000
0.000000
0.000000
0.000000
0.000000
0.000000
0.000000
0.000000
0.000000
0.000000
0.000000
0.000000
0.000000
0.000000
0.000000
0.000000
0.000000
0.000000
0.000000
0.000000
0.000000
0.000000
0.000000
0.000000
0.000000
0.000000
0.000000
0.000000
0.000000
0.000000

SCALARS u_y FLOAT 1
LOOKUP_TABLE default
-0.126612
-0.379837
-0.126612
-0.379837
-0.632873
-0.885284
-0.632873
-0.885284
-1.137084
-1.388153
-1.137084
-1.388153
-1.638613
-1.888555
-1.638613
-1.888555
-2.137960
-2.386739
-2.137960
-2.386739
-2.634882
-2.882372
-2.634882
-2.882372
-3.129310
-3.375638
-3.129310
-3.375638
-3.621367
-3.866429
-3.621367
-3.866429
-4.110824
-4.354567
-4.110824
-4.354567
-4.597683
-4.840148
-4.597683
-4.840148
-5.081902
-5.322944
-5.081902
-5.322944
-5.563281
-5.802985
-5.563281
-5.802985
-6.041990
-6.280285
-6.041990
-6.280285
-6.517819
-6.754658
-6.517819
-6.754658
-6.990724
-7.226053
-6.990724
-7.226053
-7.460651
-7.694454
-7.460651
-7.694454
-7.927462
-8.159664
-7.927462
-8.159664
-8.391179
-8.621801
-8.391179
-8.621801
-8.851623
-9.080569
-8.851623
-9.080569
-9.308736
-9.536056
-9.308736
-9.536056
-9.762463
-9.988096
-9.762463
-9.988096
-10.212761
-10.436647
-10.212761
-10.436647
-10.659502
-10.881503
-10.659502
-10.881503
-11.102523
-11.322596
-11.102523
-11.322596
-11.541757
-11.759852
-11.541757
-11.759852
-11.977004
-12.193164
-11.977004
-12.193164
-12.408287
-12.622493
-12.408287
-12.622493
-12.835534
-13.047561
-12.835534
-13.047561
-13.258438
-13.468237
-13.258438
-13.468237
-13.676928
-13.884436
-13.676928
-13.884436
-14.090817
-14.296017
-14.090817
-14.296017
-14.500101
-14.702936
-14.500101
-14.702936
-14.904470
-15.104879
-14.904470
-15.104879
-15.303900
-15.501689
-15.303900
-15.501689
-15.698188
-15.893208
-15.698188
-15.893208
-16.087026
-16.279278
-16.087026
-16.279278
-16.470223
-16.659739
-16.470223
-16.659739
-16.847836
-17.034444
-16.847836
-17.034444
-17.219451
-17.402838
-17.219451
-17.402838
-17.584675
-17.764699
-17.584675
-17.764699
-17.943242
-18.120046
-17.943242
-18.120046
-18.295309
-18.468768
-18.295309
-18.468768
-18.640235
-18.810035
-18.640235
-18.810035
-18.977600
-19.143490
-18.977600
-19.143490
-19.307396
-19.469426
-19.307396
-19.469426
-19.629252
-19.787029
-19.629252
-19.787029
-19.942623
-20.095901
-19.942623
-20.095901
-20.246791
-20.395646
-20.246791
-20.395646
-20.541769
-20.685676
-20.541769
-20.685676
-20.826878
-20.965733
-20.826878
-20.965733
-21.101677
-21.234674
-21.101677
-21.234674
-21.365054
-21.492396
-21.365054
-21.492396
-21.616915
-21.737991
-21.616915
-21.737991
-21.856197
-21.971018
-21.856197
-21.971018
-22.082279
-22.190078
-22.082279
-22.190078
-22.293749
-22.393734
-22.293749
-22.393734
-22.489866
-22.582282
-22.489866
-22.582282
-22.670245
-22.753358
-22.670245
-22.753358
-22.831554
-22.904964
-22.831554
-22.904964
-22.973889
-23.037077
-22.973889
-23.037077
-23.095296
-23.146904
-23.095296
-23.146904
-23.192762
-23.231384
-23.192762
-23.231384
-23.263875
-23.287686
-23.263875
-23.287686
-23.305404
-23.316211
-23.305404
-23.316211

