# vtk DataFile Version 2.0
MATLAB generated vtk file, WMC
ASCII
DATASET UNSTRUCTURED_GRID
POINTS 256 double
0.195312 0.066461 0.000000 
0.195312 0.199384 0.000000 
0.585938 0.066461 0.000000 
0.585938 0.199384 0.000000 
0.195312 0.332490 0.000000 
0.195312 0.466200 0.000000 
0.585938 0.332490 0.000000 
0.585938 0.466200 0.000000 
0.195312 0.600501 0.000000 
0.195312 0.735511 0.000000 
0.585938 0.600501 0.000000 
0.585938 0.735511 0.000000 
0.195312 0.871133 0.000000 
0.195312 1.007264 0.000000 
0.585938 0.871133 0.000000 
0.585938 1.007264 0.000000 
0.195312 1.143915 0.000000 
0.195312 1.281172 0.000000 
0.585938 1.143915 0.000000 
0.585938 1.281172 0.000000 
0.195312 1.419044 0.000000 
0.195312 1.557571 0.000000 
0.585938 1.419044 0.000000 
0.585938 1.557571 0.000000 
0.195312 1.696690 0.000000 
0.195312 1.836403 0.000000 
0.585938 1.696690 0.000000 
0.585938 1.836403 0.000000 
0.195312 1.976696 0.000000 
0.195312 2.117635 0.000000 
0.585938 1.976696 0.000000 
0.585938 2.117635 0.000000 
0.195312 2.259223 0.000000 
0.195312 2.401474 0.000000 
0.585938 2.259223 0.000000 
0.585938 2.401474 0.000000 
0.195312 2.544339 0.000000 
0.195312 2.687835 0.000000 
0.585938 2.544339 0.000000 
0.585938 2.687835 0.000000 
0.195312 2.832019 0.000000 
0.195312 2.976894 0.000000 
0.585938 2.832019 0.000000 
0.585938 2.976894 0.000000 
0.195312 3.122478 0.000000 
0.195312 3.268704 0.000000 
0.585938 3.122478 0.000000 
0.585938 3.268704 0.000000 
0.195312 3.415607 0.000000 
0.195312 3.563199 0.000000 
0.585938 3.415607 0.000000 
0.585938 3.563199 0.000000 
0.195312 3.711527 0.000000 
0.195312 3.860552 0.000000 
0.585938 3.711527 0.000000 
0.585938 3.860552 0.000000 
0.195312 4.010362 0.000000 
0.195312 4.160887 0.000000 
0.585938 4.010362 0.000000 
0.585938 4.160887 0.000000 
0.195312 4.312122 0.000000 
0.195312 4.464128 0.000000 
0.585938 4.312122 0.000000 
0.585938 4.464128 0.000000 
0.195312 4.616915 0.000000 
0.195312 4.770528 0.000000 
0.585938 4.616915 0.000000 
0.585938 4.770528 0.000000 
0.195312 4.924813 0.000000 
0.195312 5.079964 0.000000 
0.585938 4.924813 0.000000 
0.585938 5.079964 0.000000 
0.195312 5.235891 0.000000 
0.195312 5.392695 0.000000 
0.585938 5.235891 0.000000 
0.585938 5.392695 0.000000 
0.195312 5.550302 0.000000 
0.195312 5.708736 0.000000 
0.585938 5.550302 0.000000 
0.585938 5.708736 0.000000 
0.195312 5.868055 0.000000 
0.195312 6.028129 0.000000 
0.585938 5.868055 0.000000 
0.585938 6.028129 0.000000 
0.195312 6.189200 0.000000 
0.195312 6.351068 0.000000 
0.585938 6.189200 0.000000 
0.585938 6.351068 0.000000 
0.195312 6.513936 0.000000 
0.195312 6.677635 0.000000 
0.585938 6.513936 0.000000 
0.585938 6.677635 0.000000 
0.195312 6.842290 0.000000 
0.195312 7.007876 0.000000 
0.585938 6.842290 0.000000 
0.585938 7.007876 0.000000 
0.195312 7.174345 0.000000 
0.195312 7.341850 0.000000 
0.585938 7.174345 0.000000 
0.585938 7.341850 0.000000 
0.195312 7.510272 0.000000 
0.195312 7.679709 0.000000 
0.585938 7.510272 0.000000 
0.585938 7.679709 0.000000 
0.195312 7.850273 0.000000 
0.195312 8.021748 0.000000 
0.585938 7.850273 0.000000 
0.585938 8.021748 0.000000 
0.195312 8.194355 0.000000 
0.195312 8.367947 0.000000 
0.585938 8.194355 0.000000 
0.585938 8.367947 0.000000 
0.195312 8.542640 0.000000 
0.195312 8.718359 0.000000 
0.585938 8.542640 0.000000 
0.585938 8.718359 0.000000 
0.195312 8.895156 0.000000 
0.195312 9.073110 0.000000 
0.585938 8.895156 0.000000 
0.585938 9.073110 0.000000 
0.195312 9.252244 0.000000 
0.195312 9.432591 0.000000 
0.585938 9.252244 0.000000 
0.585938 9.432591 0.000000 
0.195312 9.614029 0.000000 
0.195312 9.796683 0.000000 
0.585938 9.614029 0.000000 
0.585938 9.796683 0.000000 
0.195312 9.980635 0.000000 
0.195312 10.165765 0.000000 
0.585938 9.980635 0.000000 
0.585938 10.165765 0.000000 
0.195312 10.352263 0.000000 
0.195312 10.539961 0.000000 
0.585938 10.352263 0.000000 
0.585938 10.539961 0.000000 
0.195312 10.728937 0.000000 
0.195312 10.919386 0.000000 
0.585938 10.728937 0.000000 
0.585938 10.919386 0.000000 
0.195312 11.111015 0.000000 
0.195312 11.304170 0.000000 
0.585938 11.111015 0.000000 
0.585938 11.304170 0.000000 
0.195312 11.498693 0.000000 
0.195312 11.694729 0.000000 
0.585938 11.498693 0.000000 
0.585938 11.694729 0.000000 
0.195312 11.892177 0.000000 
0.195312 12.091073 0.000000 
0.585938 11.892177 0.000000 
0.585938 12.091073 0.000000 
0.195312 12.291488 0.000000 
0.195312 12.493471 0.000000 
0.585938 12.291488 0.000000 
0.585938 12.493471 0.000000 
0.195312 12.696966 0.000000 
0.195312 12.902264 0.000000 
0.585938 12.696966 0.000000 
0.585938 12.902264 0.000000 
0.195312 13.109218 0.000000 
0.195312 13.318013 0.000000 
0.585938 13.109218 0.000000 
0.585938 13.318013 0.000000 
0.195312 13.528325 0.000000 
0.195312 13.740345 0.000000 
0.585938 13.528325 0.000000 
0.585938 13.740345 0.000000 
0.195312 13.954225 0.000000 
0.195312 14.169723 0.000000 
0.585938 13.954225 0.000000 
0.585938 14.169723 0.000000 
0.195312 14.387421 0.000000 
0.195312 14.606982 0.000000 
0.585938 14.387421 0.000000 
0.585938 14.606982 0.000000 
0.195312 14.828689 0.000000 
0.195312 15.052269 0.000000 
0.585938 14.828689 0.000000 
0.585938 15.052269 0.000000 
0.195312 15.278002 0.000000 
0.195312 15.505724 0.000000 
0.585938 15.278002 0.000000 
0.585938 15.505724 0.000000 
0.195312 15.735566 0.000000 
0.195312 15.967686 0.000000 
0.585938 15.735566 0.000000 
0.585938 15.967686 0.000000 
0.195312 16.202241 0.000000 
0.195312 16.438944 0.000000 
0.585938 16.202241 0.000000 
0.585938 16.438944 0.000000 
0.195312 16.678356 0.000000 
0.195312 16.920152 0.000000 
0.585938 16.678356 0.000000 
0.585938 16.920152 0.000000 
0.195312 17.164694 0.000000 
0.195312 17.411546 0.000000 
0.585938 17.164694 0.000000 
0.585938 17.411546 0.000000 
0.195312 17.661192 0.000000 
0.195312 17.913860 0.000000 
0.585938 17.661192 0.000000 
0.585938 17.913860 0.000000 
0.195312 18.169166 0.000000 
0.195312 18.427598 0.000000 
0.585938 18.169166 0.000000 
0.585938 18.427598 0.000000 
0.195312 18.688907 0.000000 
0.195312 18.953625 0.000000 
0.585938 18.688907 0.000000 
0.585938 18.953625 0.000000 
0.195312 19.221372 0.000000 
0.195312 19.492714 0.000000 
0.585938 19.221372 0.000000 
0.585938 19.492714 0.000000 
0.195312 19.767616 0.000000 
0.195312 20.045843 0.000000 
0.585938 19.767616 0.000000 
0.585938 20.045843 0.000000 
0.195312 20.328075 0.000000 
0.195312 20.614135 0.000000 
0.585938 20.328075 0.000000 
0.585938 20.614135 0.000000 
0.195312 20.904702 0.000000 
0.195312 21.199342 0.000000 
0.585938 20.904702 0.000000 
0.585938 21.199342 0.000000 
0.195312 21.498045 0.000000 
0.195312 21.801186 0.000000 
0.585938 21.498045 0.000000 
0.585938 21.801186 0.000000 
0.195312 22.109256 0.000000 
0.195312 22.422831 0.000000 
0.585938 22.109256 0.000000 
0.585938 22.422831 0.000000 
0.195312 22.741357 0.000000 
0.195312 23.065799 0.000000 
0.585938 22.741357 0.000000 
0.585938 23.065799 0.000000 
0.195312 23.395647 0.000000 
0.195312 23.732192 0.000000 
0.585938 23.395647 0.000000 
0.585938 23.732192 0.000000 
0.195312 24.074302 0.000000 
0.195312 24.423555 0.000000 
0.585938 24.074302 0.000000 
0.585938 24.423555 0.000000 
0.195312 24.779664 0.000000 
0.195312 25.145283 0.000000 
0.585938 24.779664 0.000000 
0.585938 25.145283 0.000000 
0.195312 25.516243 0.000000 
0.195312 25.894073 0.000000 
0.585938 25.516243 0.000000 
0.585938 25.894073 0.000000 

POINT_DATA 256
SCALARS sigma_xx FLOAT 1
LOOKUP_TABLE default
0.000000
0.000000
0.000000
0.000000
0.000000
-0.000000
0.000000
-0.000000
-0.000000
-0.000000
-0.000000
-0.000000
0.000000
-0.000000
0.000000
0.000000
-0.000000
-0.000000
-0.000000
-0.000000
-0.000000
-0.000000
-0.000000
-0.000000
-0.000000
-0.000000
-0.000000
-0.000000
-0.000000
-0.000000
-0.000000
-0.000000
-0.000000
-0.000000
-0.000000
-0.000000
-0.000000
0.000000
-0.000000
0.000000
-0.000000
-0.000000
-0.000000
-0.000000
0.000000
-0.000000
0.000000
-0.000000
-0.000000
-0.000000
-0.000000
-0.000000
-0.000000
0.000000
-0.000000
0.000000
-0.000000
-0.000000
-0.000000
-0.000000
-0.000000
0.000000
-0.000000
0.000000
-0.000000
-0.000000
-0.000000
-0.000000
-0.000000
-0.000000
-0.000000
-0.000000
-0.000000
-0.000000
-0.000000
-0.000000
-0.000000
-0.000000
-0.000000
-0.000000
-0.000000
-0.000000
-0.000000
-0.000000
-0.000000
0.000000
-0.000000
0.000000
-0.000000
-0.000000
-0.000000
-0.000000
-0.000000
-0.000000
-0.000000
-0.000000
-0.000000
-0.000000
-0.000000
-0.000000
-0.000000
-0.000000
-0.000000
-0.000000
-0.000000
-0.000000
-0.000000
-0.000000
-0.000000
-0.000000
-0.000000
-0.000000
-0.000000
-0.000000
-0.000000
-0.000000
-0.000000
-0.000000
-0.000000
-0.000000
-0.000000
-0.000000
-0.000000
-0.000000
-0.000000
-0.000000
-0.000000
-0.000000
0.000000
-0.000000
0.000000
-0.000000
-0.000000
-0.000000
-0.000000
-0.000000
-0.000000
-0.000000
-0.000000
-0.000000
-0.000000
-0.000000
-0.000000
-0.000000
-0.000000
-0.000000
-0.000000
-0.000000
-0.000000
-0.000000
-0.000000
-0.000000
-0.000000
-0.000000
-0.000000
-0.000000
-0.000000
-0.000000
-0.000000
-0.000000
-0.000000
-0.000000
-0.000000
-0.000000
-0.000000
-0.000000
-0.000000
-0.000000
-0.000000
-0.000000
-0.000000
-0.000000
-0.000000
-0.000000
-0.000000
-0.000000
-0.000000
-0.000000
-0.000000
-0.000000
-0.000000
-0.000000
-0.000000
-0.000000
-0.000000
-0.000000
-0.000000
-0.000000
-0.000000
-0.000000
-0.000000
-0.000000
-0.000000
-0.000000
-0.000000
-0.000000
-0.000000
-0.000000
-0.000000
-0.000000
-0.000000
-0.000000
-0.000000
-0.000000
0.000000
-0.000000
-0.000000
-0.000000
0.000000
-0.000000
-0.000000
-0.000000
0.000000
-0.000000
0.000000
0.000000
-0.000000
-0.000000
-0.000000
-0.000000
0.000000
-0.000000
0.000000
-0.000000
-0.000000
0.000000
-0.000000
0.000000
-0.000000
-0.000000
-0.000000
-0.000000
0.000000
-0.000000
0.000000
-0.000000
-0.000000
-0.000000
-0.000000
-0.000000
-0.000000
-0.000000
-0.000000
-0.000000
-0.000000
0.000000
-0.000000
0.000000
0.000000
0.000000
-0.000000
0.000000
-0.000000
0.000000
-0.000000
-0.000000

SCALARS sigma_yy FLOAT 1
LOOKUP_TABLE default
-31679.029835
-31679.029835
-31679.029835
-31679.029835
-31457.664590
-31201.939730
-31457.664590
-31201.939730
-30886.604428
-30602.469079
-30886.604428
-30602.469079
-30344.612993
-30149.936579
-30344.612993
-30149.936579
-29889.979310
-29644.547321
-29889.979310
-29644.547321
-29362.470490
-29115.416451
-29362.470490
-29115.416451
-28861.207720
-28637.836220
-28861.207720
-28637.836220
-28377.712032
-28133.143356
-28377.712032
-28133.143356
-27852.574341
-27630.333821
-27852.574341
-27630.333821
-27372.423330
-27148.026471
-27372.423330
-27148.026471
-26865.817552
-26620.525574
-26865.817552
-26620.525574
-26345.212683
-26146.050230
-26345.212683
-26146.050230
-25875.004939
-25644.504207
-25875.004939
-25644.504207
-25366.128558
-25131.202722
-25366.128558
-25131.202722
-24857.630694
-24641.550057
-24857.630694
-24641.550057
-24364.781099
-24138.659756
-24364.781099
-24138.659756
-23866.337785
-23619.747310
-23866.337785
-23619.747310
-23383.088399
-23137.725578
-23383.088399
-23137.725578
-22871.816180
-22614.036826
-22871.816180
-22614.036826
-22369.127024
-22131.823794
-22369.127024
-22131.823794
-21862.535441
-21641.470260
-21862.535441
-21641.470260
-21365.407241
-21131.163606
-21365.407241
-21131.163606
-20849.072753
-20639.155325
-20849.072753
-20639.155325
-20359.464139
-20134.673011
-20359.464139
-20134.673011
-19883.168100
-19628.789218
-19883.168100
-19628.789218
-19382.781797
-19122.355122
-19382.781797
-19122.355122
-18853.593109
-18629.701507
-18853.593109
-18629.701507
-18368.277229
-18128.441733
-18368.277229
-18128.441733
-17865.744578
-17647.243520
-17865.744578
-17647.243520
-17376.643196
-17134.878643
-17376.643196
-17134.878643
-16865.074971
-16631.826633
-16865.074971
-16631.826633
-16369.341626
-16145.463723
-16369.341626
-16145.463723
-15855.705824
-15637.766909
-15855.705824
-15637.766909
-15355.708042
-15134.187494
-15355.708042
-15134.187494
-14863.893089
-14637.625410
-14863.893089
-14637.625410
-14376.519546
-14127.792977
-14376.519546
-14127.792977
-13862.382201
-13617.330604
-13862.382201
-13617.330604
-13376.805269
-13141.784923
-13376.805269
-13141.784923
-12871.786525
-12639.274883
-12871.786525
-12639.274883
-12385.780355
-12105.388523
-12385.780355
-12105.388523
-11865.176339
-11602.427438
-11865.176339
-11602.427438
-11380.812261
-11127.446446
-11380.812261
-11127.446446
-10898.804705
-10632.287622
-10898.804705
-10632.287622
-10370.655452
-10114.290365
-10370.655452
-10114.290365
-9857.055330
-9619.492556
-9857.055330
-9619.492556
-9379.887750
-9130.669650
-9379.887750
-9130.669650
-8894.848067
-8624.537872
-8894.848067
-8624.537872
-8377.050319
-8134.032999
-8377.050319
-8134.032999
-7859.068170
-7627.839818
-7859.068170
-7627.839818
-7356.061319
-7147.553997
-7356.061319
-7147.553997
-6860.838583
-6625.879923
-6860.838583
-6625.879923
-6374.591797
-6129.647941
-6374.591797
-6129.647941
-5880.378215
-5622.844499
-5880.378215
-5622.844499
-5373.801478
-5120.834825
-5373.801478
-5120.834825
-4878.911473
-4635.770617
-4878.911473
-4635.770617
-4368.689703
-4125.079723
-4368.689703
-4125.079723
-3844.974209
-3633.996877
-3844.974209
-3633.996877
-3385.647153
-3149.589700
-3385.647153
-3149.589700
-2860.919042
-2628.423247
-2860.919042
-2628.423247
-2365.022931
-2128.335553
-2365.022931
-2128.335553
-1862.481849
-1622.980918
-1862.481849
-1622.980918
-1385.383543
-1135.336066
-1385.383543
-1135.336066
-866.652146
-609.607280
-866.652146
-609.607280
-435.523532
-60.047105
-435.523532
-60.047105

SCALARS sigma_zz FLOAT 1
LOOKUP_TABLE default
0.000000
0.000000
0.000000
0.000000
0.000000
0.000000
0.000000
0.000000
0.000000
0.000000
0.000000
0.000000
0.000000
0.000000
0.000000
0.000000
0.000000
0.000000
0.000000
0.000000
0.000000
0.000000
0.000000
0.000000
0.000000
0.000000
0.000000
0.000000
0.000000
0.000000
0.000000
0.000000
0.000000
0.000000
0.000000
0.000000
0.000000
0.000000
0.000000
0.000000
0.000000
0.000000
0.000000
0.000000
0.000000
0.000000
0.000000
0.000000
0.000000
0.000000
0.000000
0.000000
0.000000
0.000000
0.000000
0.000000
0.000000
0.000000
0.000000
0.000000
0.000000
0.000000
0.000000
0.000000
0.000000
0.000000
0.000000
0.000000
0.000000
0.000000
0.000000
0.000000
0.000000
0.000000
0.000000
0.000000
0.000000
0.000000
0.000000
0.000000
0.000000
0.000000
0.000000
0.000000
0.000000
0.000000
0.000000
0.000000
0.000000
0.000000
0.000000
0.000000
0.000000
0.000000
0.000000
0.000000
0.000000
0.000000
0.000000
0.000000
0.000000
0.000000
0.000000
0.000000
0.000000
0.000000
0.000000
0.000000
0.000000
0.000000
0.000000
0.000000
0.000000
0.000000
0.000000
0.000000
0.000000
0.000000
0.000000
0.000000
0.000000
0.000000
0.000000
0.000000
0.000000
0.000000
0.000000
0.000000
0.000000
0.000000
0.000000
0.000000
0.000000
0.000000
0.000000
0.000000
0.000000
0.000000
0.000000
0.000000
0.000000
0.000000
0.000000
0.000000
0.000000
0.000000
0.000000
0.000000
0.000000
0.000000
0.000000
0.000000
0.000000
0.000000
0.000000
0.000000
0.000000
0.000000
0.000000
0.000000
0.000000
0.000000
0.000000
0.000000
0.000000
0.000000
0.000000
0.000000
0.000000
0.000000
0.000000
0.000000
0.000000
0.000000
0.000000
0.000000
0.000000
0.000000
0.000000
0.000000
0.000000
0.000000
0.000000
0.000000
0.000000
0.000000
0.000000
0.000000
0.000000
0.000000
0.000000
0.000000
0.000000
0.000000
0.000000
0.000000
0.000000
0.000000
0.000000
0.000000
0.000000
0.000000
0.000000
0.000000
0.000000
0.000000
0.000000
0.000000
0.000000
0.000000
0.000000
0.000000
0.000000
0.000000
0.000000
0.000000
0.000000
0.000000
0.000000
0.000000
0.000000
0.000000
0.000000
0.000000
0.000000
0.000000
0.000000
0.000000
0.000000
0.000000
0.000000
0.000000
0.000000
0.000000
0.000000
0.000000
0.000000
0.000000
0.000000
0.000000
0.000000
0.000000
0.000000
0.000000
0.000000
0.000000
0.000000
0.000000
0.000000
0.000000
0.000000
0.000000
0.000000
0.000000
0.000000
0.000000

SCALARS sigma_xy FLOAT 1
LOOKUP_TABLE default
0.000000
0.000000
0.000000
0.000000
0.000000
-0.000000
0.000000
-0.000000
-0.000000
-0.000000
-0.000000
-0.000000
0.000000
0.000000
0.000000
0.000000
0.000000
0.000000
0.000000
0.000000
-0.000000
-0.000000
-0.000000
-0.000000
-0.000000
-0.000000
-0.000000
-0.000000
0.000000
0.000000
0.000000
0.000000
0.000000
0.000000
0.000000
0.000000
0.000000
0.000000
0.000000
0.000000
0.000000
0.000000
0.000000
0.000000
0.000000
-0.000000
0.000000
-0.000000
-0.000000
-0.000000
-0.000000
-0.000000
-0.000000
0.000000
-0.000000
0.000000
0.000000
0.000000
0.000000
0.000000
0.000000
0.000000
0.000000
0.000000
0.000000
-0.000000
0.000000
-0.000000
-0.000000
-0.000000
-0.000000
-0.000000
-0.000000
0.000000
-0.000000
0.000000
0.000000
0.000000
0.000000
0.000000
0.000000
0.000000
0.000000
0.000000
0.000000
0.000000
0.000000
0.000000
-0.000000
-0.000000
-0.000000
-0.000000
-0.000000
-0.000000
-0.000000
-0.000000
-0.000000
0.000000
-0.000000
0.000000
0.000000
0.000000
0.000000
0.000000
0.000000
-0.000000
0.000000
-0.000000
-0.000000
0.000000
-0.000000
0.000000
0.000000
0.000000
0.000000
0.000000
0.000000
0.000000
0.000000
0.000000
-0.000000
-0.000000
-0.000000
-0.000000
-0.000000
-0.000000
-0.000000
-0.000000
0.000000
0.000000
0.000000
0.000000
0.000000
-0.000000
0.000000
-0.000000
-0.000000
-0.000000
-0.000000
-0.000000
-0.000000
0.000000
-0.000000
0.000000
0.000000
0.000000
0.000000
0.000000
0.000000
-0.000000
0.000000
-0.000000
-0.000000
-0.000000
-0.000000
-0.000000
0.000000
0.000000
0.000000
0.000000
0.000000
-0.000000
0.000000
-0.000000
-0.000000
-0.000000
-0.000000
-0.000000
-0.000000
0.000000
-0.000000
0.000000
0.000000
0.000000
0.000000
0.000000
0.000000
-0.000000
0.000000
-0.000000
-0.000000
-0.000000
-0.000000
-0.000000
-0.000000
-0.000000
-0.000000
-0.000000
0.000000
0.000000
0.000000
0.000000
0.000000
-0.000000
0.000000
-0.000000
-0.000000
0.000000
-0.000000
0.000000
0.000000
0.000000
0.000000
0.000000
0.000000
-0.000000
-0.000000
-0.000000
0.000000
0.000000
0.000000
0.000000
0.000000
-0.000000
0.000000
0.000000
-0.000000
0.000000
-0.000000
0.000000
0.000000
0.000000
0.000000
0.000000
0.000000
0.000000
0.000000
0.000000
-0.000000
-0.000000
-0.000000
-0.000000
0.000000
-0.000000
0.000000
-0.000000
0.000000
0.000000
0.000000
0.000000
0.000000
0.000000
0.000000
0.000000
-0.000000
0.000000
-0.000000
0.000000
0.000000
0.000000
-0.000000
0.000000
-0.000000
0.000000
-0.000000
0.000000

SCALARS sigma_yz FLOAT 1
LOOKUP_TABLE default
0.000000
0.000000
0.000000
0.000000
0.000000
0.000000
0.000000
0.000000
0.000000
0.000000
0.000000
0.000000
0.000000
0.000000
0.000000
0.000000
0.000000
0.000000
0.000000
0.000000
0.000000
0.000000
0.000000
0.000000
0.000000
0.000000
0.000000
0.000000
0.000000
0.000000
0.000000
0.000000
0.000000
0.000000
0.000000
0.000000
0.000000
0.000000
0.000000
0.000000
0.000000
0.000000
0.000000
0.000000
0.000000
0.000000
0.000000
0.000000
0.000000
0.000000
0.000000
0.000000
0.000000
0.000000
0.000000
0.000000
0.000000
0.000000
0.000000
0.000000
0.000000
0.000000
0.000000
0.000000
0.000000
0.000000
0.000000
0.000000
0.000000
0.000000
0.000000
0.000000
0.000000
0.000000
0.000000
0.000000
0.000000
0.000000
0.000000
0.000000
0.000000
0.000000
0.000000
0.000000
0.000000
0.000000
0.000000
0.000000
0.000000
0.000000
0.000000
0.000000
0.000000
0.000000
0.000000
0.000000
0.000000
0.000000
0.000000
0.000000
0.000000
0.000000
0.000000
0.000000
0.000000
0.000000
0.000000
0.000000
0.000000
0.000000
0.000000
0.000000
0.000000
0.000000
0.000000
0.000000
0.000000
0.000000
0.000000
0.000000
0.000000
0.000000
0.000000
0.000000
0.000000
0.000000
0.000000
0.000000
0.000000
0.000000
0.000000
0.000000
0.000000
0.000000
0.000000
0.000000
0.000000
0.000000
0.000000
0.000000
0.000000
0.000000
0.000000
0.000000
0.000000
0.000000
0.000000
0.000000
0.000000
0.000000
0.000000
0.000000
0.000000
0.000000
0.000000
0.000000
0.000000
0.000000
0.000000
0.000000
0.000000
0.000000
0.000000
0.000000
0.000000
0.000000
0.000000
0.000000
0.000000
0.000000
0.000000
0.000000
0.000000
0.000000
0.000000
0.000000
0.000000
0.000000
0.000000
0.000000
0.000000
0.000000
0.000000
0.000000
0.000000
0.000000
0.000000
0.000000
0.000000
0.000000
0.000000
0.000000
0.000000
0.000000
0.000000
0.000000
0.000000
0.000000
0.000000
0.000000
0.000000
0.000000
0.000000
0.000000
0.000000
0.000000
0.000000
0.000000
0.000000
0.000000
0.000000
0.000000
0.000000
0.000000
0.000000
0.000000
0.000000
0.000000
0.000000
0.000000
0.000000
0.000000
0.000000
0.000000
0.000000
0.000000
0.000000
0.000000
0.000000
0.000000
0.000000
0.000000
0.000000
0.000000
0.000000
0.000000
0.000000
0.000000
0.000000
0.000000
0.000000
0.000000
0.000000
0.000000
0.000000
0.000000
0.000000
0.000000
0.000000
0.000000
0.000000
0.000000
0.000000
0.000000
0.000000
0.000000

SCALARS sigma_zx FLOAT 1
LOOKUP_TABLE default
0.000000
0.000000
0.000000
0.000000
0.000000
0.000000
0.000000
0.000000
0.000000
0.000000
0.000000
0.000000
0.000000
0.000000
0.000000
0.000000
0.000000
0.000000
0.000000
0.000000
0.000000
0.000000
0.000000
0.000000
0.000000
0.000000
0.000000
0.000000
0.000000
0.000000
0.000000
0.000000
0.000000
0.000000
0.000000
0.000000
0.000000
0.000000
0.000000
0.000000
0.000000
0.000000
0.000000
0.000000
0.000000
0.000000
0.000000
0.000000
0.000000
0.000000
0.000000
0.000000
0.000000
0.000000
0.000000
0.000000
0.000000
0.000000
0.000000
0.000000
0.000000
0.000000
0.000000
0.000000
0.000000
0.000000
0.000000
0.000000
0.000000
0.000000
0.000000
0.000000
0.000000
0.000000
0.000000
0.000000
0.000000
0.000000
0.000000
0.000000
0.000000
0.000000
0.000000
0.000000
0.000000
0.000000
0.000000
0.000000
0.000000
0.000000
0.000000
0.000000
0.000000
0.000000
0.000000
0.000000
0.000000
0.000000
0.000000
0.000000
0.000000
0.000000
0.000000
0.000000
0.000000
0.000000
0.000000
0.000000
0.000000
0.000000
0.000000
0.000000
0.000000
0.000000
0.000000
0.000000
0.000000
0.000000
0.000000
0.000000
0.000000
0.000000
0.000000
0.000000
0.000000
0.000000
0.000000
0.000000
0.000000
0.000000
0.000000
0.000000
0.000000
0.000000
0.000000
0.000000
0.000000
0.000000
0.000000
0.000000
0.000000
0.000000
0.000000
0.000000
0.000000
0.000000
0.000000
0.000000
0.000000
0.000000
0.000000
0.000000
0.000000
0.000000
0.000000
0.000000
0.000000
0.000000
0.000000
0.000000
0.000000
0.000000
0.000000
0.000000
0.000000
0.000000
0.000000
0.000000
0.000000
0.000000
0.000000
0.000000
0.000000
0.000000
0.000000
0.000000
0.000000
0.000000
0.000000
0.000000
0.000000
0.000000
0.000000
0.000000
0.000000
0.000000
0.000000
0.000000
0.000000
0.000000
0.000000
0.000000
0.000000
0.000000
0.000000
0.000000
0.000000
0.000000
0.000000
0.000000
0.000000
0.000000
0.000000
0.000000
0.000000
0.000000
0.000000
0.000000
0.000000
0.000000
0.000000
0.000000
0.000000
0.000000
0.000000
0.000000
0.000000
0.000000
0.000000
0.000000
0.000000
0.000000
0.000000
0.000000
0.000000
0.000000
0.000000
0.000000
0.000000
0.000000
0.000000
0.000000
0.000000
0.000000
0.000000
0.000000
0.000000
0.000000
0.000000
0.000000
0.000000
0.000000
0.000000
0.000000
0.000000
0.000000
0.000000
0.000000
0.000000
0.000000
0.000000
0.000000
0.000000
0.000000
0.000000
0.000000

SCALARS u_x FLOAT 1
LOOKUP_TABLE default
0.000000
0.000000
0.000000
0.000000
0.000000
0.000000
0.000000
0.000000
0.000000
0.000000
0.000000
0.000000
0.000000
0.000000
0.000000
0.000000
0.000000
0.000000
0.000000
0.000000
0.000000
0.000000
0.000000
0.000000
0.000000
0.000000
0.000000
0.000000
0.000000
0.000000
0.000000
0.000000
0.000000
0.000000
0.000000
0.000000
0.000000
0.000000
0.000000
0.000000
0.000000
0.000000
0.000000
0.000000
0.000000
0.000000
0.000000
0.000000
0.000000
0.000000
0.000000
0.000000
0.000000
0.000000
0.000000
0.000000
0.000000
0.000000
0.000000
0.000000
0.000000
0.000000
0.000000
0.000000
0.000000
0.000000
0.000000
0.000000
0.000000
0.000000
0.000000
0.000000
0.000000
0.000000
0.000000
0.000000
0.000000
0.000000
0.000000
0.000000
0.000000
0.000000
0.000000
0.000000
0.000000
0.000000
0.000000
0.000000
0.000000
0.000000
0.000000
0.000000
0.000000
0.000000
0.000000
0.000000
0.000000
0.000000
0.000000
0.000000
0.000000
0.000000
0.000000
0.000000
0.000000
0.000000
0.000000
0.000000
0.000000
0.000000
0.000000
0.000000
0.000000
0.000000
0.000000
0.000000
0.000000
0.000000
0.000000
0.000000
0.000000
0.000000
0.000000
0.000000
0.000000
0.000000
0.000000
0.000000
0.000000
0.000000
0.000000
0.000000
0.000000
0.000000
0.000000
0.000000
0.000000
0.000000
0.000000
0.000000
0.000000
0.000000
0.000000
0.000000
0.000000
0.000000
0.000000
0.000000
0.000000
0.000000
0.000000
0.000000
0.000000
0.000000
0.000000
0.000000
0.000000
0.000000
0.000000
0.000000
0.000000
0.000000
0.000000
0.000000
0.000000
0.000000
0.000000
0.000000
0.000000
0.000000
0.000000
0.000000
0.000000
0.000000
0.000000
0.000000
0.000000
0.000000
0.000000
0.000000
0.000000
0.000000
0.000000
0.000000
0.000000
0.000000
0.000000
0.000000
0.000000
0.000000
0.000000
0.000000
0.000000
0.000000
0.000000
0.000000
0.000000
0.000000
0.000000
0.000000
0.000000
0.000000
0.000000
0.000000
0.000000
0.000000
0.000000
0.000000
0.000000
0.000000
0.000000
0.000000
0.000000
0.000000
0.000000
0.000000
0.000000
0.000000
0.000000
0.000000
0.000000
0.000000
0.000000
0.000000
0.000000
0.000000
0.000000
0.000000
0.000000
0.000000
0.000000
0.000000
0.000000
0.000000
0.000000
0.000000
0.000000
0.000000
0.000000
0.000000
0.000000
0.000000
0.000000
0.000000
0.000000
0.000000
0.000000
0.000000
0.000000
0.000000
0.000000
0.000000
0.000000
0.000000
0.000000
0.000000

SCALARS u_y FLOAT 1
LOOKUP_TABLE default
-0.128851
-0.386553
-0.128851
-0.386553
-0.644073
-0.900988
-0.644073
-0.900988
-1.157312
-1.412927
-1.157312
-1.412927
-1.667930
-1.922423
-1.667930
-1.922423
-2.176397
-2.429765
-2.176397
-2.429765
-2.682518
-2.934617
-2.682518
-2.934617
-3.186123
-3.437035
-3.186123
-3.437035
-3.687366
-3.937052
-3.687366
-3.937052
-4.186089
-4.434464
-4.186089
-4.434464
-4.682224
-4.929352
-4.682224
-4.929352
-5.175793
-5.421544
-5.175793
-5.421544
-5.666584
-5.910984
-5.666584
-5.910984
-6.154705
-6.397739
-6.154705
-6.397739
-6.640035
-6.881636
-6.640035
-6.881636
-7.122451
-7.362550
-7.122451
-7.362550
-7.601940
-7.840560
-7.601940
-7.840560
-8.078398
-8.315410
-8.078398
-8.315410
-8.551750
-8.787223
-8.551750
-8.787223
-9.021921
-9.255742
-9.021921
-9.255742
-9.488760
-9.720952
-9.488760
-9.720952
-9.952258
-10.182809
-9.952258
-10.182809
-10.412362
-10.641120
-10.412362
-10.641120
-10.868876
-11.095803
-10.868876
-11.095803
-11.321773
-11.546812
-11.321773
-11.546812
-11.770967
-11.994088
-11.770967
-11.994088
-12.216291
-12.437479
-12.216291
-12.437479
-12.657540
-12.876690
-12.657540
-12.876690
-13.094707
-13.311740
-13.094707
-13.311740
-13.527673
-13.742578
-13.527673
-13.742578
-13.956406
-14.169078
-13.956406
-14.169078
-14.380568
-14.590846
-14.380568
-14.590846
-14.800033
-15.008005
-14.800033
-15.008005
-15.214677
-15.420173
-15.214677
-15.420173
-15.624299
-15.827226
-15.624299
-15.827226
-16.028876
-16.229052
-16.028876
-16.229052
-16.428048
-16.625517
-16.428048
-16.625517
-16.821619
-17.016208
-16.821619
-17.016208
-17.209386
-17.401114
-17.209386
-17.401114
-17.591325
-17.779966
-17.591325
-17.779966
-17.967096
-18.152424
-17.967096
-18.152424
-18.336095
-18.517925
-18.336095
-18.517925
-18.698237
-18.876842
-18.698237
-18.876842
-19.053588
-19.228714
-19.053588
-19.228714
-19.401642
-19.572706
-19.401642
-19.572706
-19.741623
-19.908668
-19.741623
-19.908668
-20.073561
-20.236464
-20.073561
-20.236464
-20.397247
-20.555751
-20.397247
-20.555751
-20.711821
-20.865744
-20.711821
-20.865744
-21.016957
-21.165786
-21.016957
-21.165786
-21.311868
-21.455641
-21.311868
-21.455641
-21.596620
-21.734578
-21.596620
-21.734578
-21.869897
-22.002090
-21.869897
-22.002090
-22.131405
-22.257313
-22.131405
-22.257313
-22.380191
-22.499473
-22.380191
-22.499473
-22.615197
-22.727595
-22.615197
-22.727595
-22.835987
-22.940553
-22.835987
-22.940553
-23.040610
-23.136595
-23.040610
-23.136595
-23.228517
-23.316002
-23.228517
-23.316002
-23.398556
-23.475607
-23.398556
-23.475607
-23.547706
-23.613889
-23.547706
-23.613889
-23.674666
-23.728746
-23.674666
-23.728746
-23.777261
-23.818632
-23.777261
-23.818632
-23.853148
-23.878154
-23.853148
-23.878154
-23.897820
-23.910614
-23.897820
-23.910614

