# vtk DataFile Version 2.0
MATLAB generated vtk file, WMC
ASCII
DATASET UNSTRUCTURED_GRID
POINTS 256 double
0.195312 0.111093 0.000000 
0.195312 0.333278 0.000000 
0.585938 0.111093 0.000000 
0.585938 0.333278 0.000000 
0.195312 0.555769 0.000000 
0.195312 0.779248 0.000000 
0.585938 0.555769 0.000000 
0.585938 0.779248 0.000000 
0.195312 1.003354 0.000000 
0.195312 1.228053 0.000000 
0.585938 1.003354 0.000000 
0.585938 1.228053 0.000000 
0.195312 1.453413 0.000000 
0.195312 1.679523 0.000000 
0.585938 1.453413 0.000000 
0.585938 1.679523 0.000000 
0.195312 1.906203 0.000000 
0.195312 2.133601 0.000000 
0.585938 1.906203 0.000000 
0.585938 2.133601 0.000000 
0.195312 2.361705 0.000000 
0.195312 2.590424 0.000000 
0.585938 2.361705 0.000000 
0.585938 2.590424 0.000000 
0.195312 2.819755 0.000000 
0.195312 3.049848 0.000000 
0.585938 2.819755 0.000000 
0.585938 3.049848 0.000000 
0.195312 3.280650 0.000000 
0.195312 3.512126 0.000000 
0.585938 3.280650 0.000000 
0.585938 3.512126 0.000000 
0.195312 3.744315 0.000000 
0.195312 3.977253 0.000000 
0.585938 3.744315 0.000000 
0.585938 3.977253 0.000000 
0.195312 4.210901 0.000000 
0.195312 4.445274 0.000000 
0.585938 4.210901 0.000000 
0.585938 4.445274 0.000000 
0.195312 4.680445 0.000000 
0.195312 4.916241 0.000000 
0.585938 4.680445 0.000000 
0.585938 4.916241 0.000000 
0.195312 5.152807 0.000000 
0.195312 5.390069 0.000000 
0.585938 5.152807 0.000000 
0.585938 5.390069 0.000000 
0.195312 5.628188 0.000000 
0.195312 5.866989 0.000000 
0.585938 5.628188 0.000000 
0.585938 5.866989 0.000000 
0.195312 6.106621 0.000000 
0.195312 6.346921 0.000000 
0.585938 6.106621 0.000000 
0.585938 6.346921 0.000000 
0.195312 6.588066 0.000000 
0.195312 6.830002 0.000000 
0.585938 6.588066 0.000000 
0.585938 6.830002 0.000000 
0.195312 7.072730 0.000000 
0.195312 7.316273 0.000000 
0.585938 7.072730 0.000000 
0.585938 7.316273 0.000000 
0.195312 7.560623 0.000000 
0.195312 7.805909 0.000000 
0.585938 7.560623 0.000000 
0.585938 7.805909 0.000000 
0.195312 8.051749 0.000000 
0.195312 8.298610 0.000000 
0.585938 8.051749 0.000000 
0.585938 8.298610 0.000000 
0.195312 8.546232 0.000000 
0.195312 8.794810 0.000000 
0.585938 8.546232 0.000000 
0.585938 8.794810 0.000000 
0.195312 9.044130 0.000000 
0.195312 9.294356 0.000000 
0.585938 9.044130 0.000000 
0.585938 9.294356 0.000000 
0.195312 9.545542 0.000000 
0.195312 9.797380 0.000000 
0.585938 9.545542 0.000000 
0.585938 9.797380 0.000000 
0.195312 10.050349 0.000000 
0.195312 10.303970 0.000000 
0.585938 10.050349 0.000000 
0.585938 10.303970 0.000000 
0.195312 10.558703 0.000000 
0.195312 10.814258 0.000000 
0.585938 10.558703 0.000000 
0.585938 10.814258 0.000000 
0.195312 11.070736 0.000000 
0.195312 11.328178 0.000000 
0.585938 11.070736 0.000000 
0.585938 11.328178 0.000000 
0.195312 11.586464 0.000000 
0.195312 11.845884 0.000000 
0.585938 11.586464 0.000000 
0.585938 11.845884 0.000000 
0.195312 12.106118 0.000000 
0.195312 12.367373 0.000000 
0.585938 12.106118 0.000000 
0.585938 12.367373 0.000000 
0.195312 12.629661 0.000000 
0.195312 12.892746 0.000000 
0.585938 12.629661 0.000000 
0.585938 12.892746 0.000000 
0.195312 13.157174 0.000000 
0.195312 13.422300 0.000000 
0.585938 13.157174 0.000000 
0.585938 13.422300 0.000000 
0.195312 13.688604 0.000000 
0.195312 13.955829 0.000000 
0.585938 13.688604 0.000000 
0.585938 13.955829 0.000000 
0.195312 14.224036 0.000000 
0.195312 14.493500 0.000000 
0.585938 14.224036 0.000000 
0.585938 14.493500 0.000000 
0.195312 14.763859 0.000000 
0.195312 15.035385 0.000000 
0.585938 14.763859 0.000000 
0.585938 15.035385 0.000000 
0.195312 15.307901 0.000000 
0.195312 15.581500 0.000000 
0.585938 15.307901 0.000000 
0.585938 15.581500 0.000000 
0.195312 15.856363 0.000000 
0.195312 16.132159 0.000000 
0.585938 15.856363 0.000000 
0.585938 16.132159 0.000000 
0.195312 16.409278 0.000000 
0.195312 16.687486 0.000000 
0.585938 16.409278 0.000000 
0.585938 16.687486 0.000000 
0.195312 16.966810 0.000000 
0.195312 17.247622 0.000000 
0.585938 16.966810 0.000000 
0.585938 17.247622 0.000000 
0.195312 17.529189 0.000000 
0.195312 17.812274 0.000000 
0.585938 17.529189 0.000000 
0.585938 17.812274 0.000000 
0.195312 18.096257 0.000000 
0.195312 18.381610 0.000000 
0.585938 18.096257 0.000000 
0.585938 18.381610 0.000000 
0.195312 18.668292 0.000000 
0.195312 18.956092 0.000000 
0.585938 18.668292 0.000000 
0.585938 18.956092 0.000000 
0.195312 19.245421 0.000000 
0.195312 19.536030 0.000000 
0.585938 19.245421 0.000000 
0.585938 19.536030 0.000000 
0.195312 19.827571 0.000000 
0.195312 20.120791 0.000000 
0.585938 19.827571 0.000000 
0.585938 20.120791 0.000000 
0.195312 20.415056 0.000000 
0.195312 20.711032 0.000000 
0.585938 20.415056 0.000000 
0.585938 20.711032 0.000000 
0.195312 21.008235 0.000000 
0.195312 21.306676 0.000000 
0.585938 21.008235 0.000000 
0.585938 21.306676 0.000000 
0.195312 21.606872 0.000000 
0.195312 21.908057 0.000000 
0.585938 21.606872 0.000000 
0.585938 21.908057 0.000000 
0.195312 22.211102 0.000000 
0.195312 22.515331 0.000000 
0.585938 22.211102 0.000000 
0.585938 22.515331 0.000000 
0.195312 22.821149 0.000000 
0.195312 23.128476 0.000000 
0.585938 22.821149 0.000000 
0.585938 23.128476 0.000000 
0.195312 23.437395 0.000000 
0.195312 23.747855 0.000000 
0.585938 23.437395 0.000000 
0.585938 23.747855 0.000000 
0.195312 24.059969 0.000000 
0.195312 24.373478 0.000000 
0.585938 24.059969 0.000000 
0.585938 24.373478 0.000000 
0.195312 24.688911 0.000000 
0.195312 25.005569 0.000000 
0.585938 24.688911 0.000000 
0.585938 25.005569 0.000000 
0.195312 25.324485 0.000000 
0.195312 25.644709 0.000000 
0.585938 25.324485 0.000000 
0.585938 25.644709 0.000000 
0.195312 25.966828 0.000000 
0.195312 26.290389 0.000000 
0.585938 25.966828 0.000000 
0.585938 26.290389 0.000000 
0.195312 26.615702 0.000000 
0.195312 26.943071 0.000000 
0.585938 26.615702 0.000000 
0.585938 26.943071 0.000000 
0.195312 27.272180 0.000000 
0.195312 27.603432 0.000000 
0.585938 27.272180 0.000000 
0.585938 27.603432 0.000000 
0.195312 27.936283 0.000000 
0.195312 28.271232 0.000000 
0.585938 27.936283 0.000000 
0.585938 28.271232 0.000000 
0.195312 28.607916 0.000000 
0.195312 28.946688 0.000000 
0.585938 28.607916 0.000000 
0.585938 28.946688 0.000000 
0.195312 29.287528 0.000000 
0.195312 29.630438 0.000000 
0.585938 29.287528 0.000000 
0.585938 29.630438 0.000000 
0.195312 29.975511 0.000000 
0.195312 30.322747 0.000000 
0.585938 29.975511 0.000000 
0.585938 30.322747 0.000000 
0.195312 30.672125 0.000000 
0.195312 31.023738 0.000000 
0.585938 30.672125 0.000000 
0.585938 31.023738 0.000000 
0.195312 31.377485 0.000000 
0.195312 31.733554 0.000000 
0.585938 31.377485 0.000000 
0.585938 31.733554 0.000000 
0.195312 32.091807 0.000000 
0.195312 32.452700 0.000000 
0.585938 32.091807 0.000000 
0.585938 32.452700 0.000000 
0.195312 32.815795 0.000000 
0.195312 33.181634 0.000000 
0.585938 32.815795 0.000000 
0.585938 33.181634 0.000000 
0.195312 33.549776 0.000000 
0.195312 33.920801 0.000000 
0.585938 33.549776 0.000000 
0.585938 33.920801 0.000000 
0.195312 34.294157 0.000000 
0.195312 34.670430 0.000000 
0.585938 34.294157 0.000000 
0.585938 34.670430 0.000000 
0.195312 35.049209 0.000000 
0.195312 35.431664 0.000000 
0.585938 35.049209 0.000000 
0.585938 35.431664 0.000000 
0.195312 35.816042 0.000000 
0.195312 36.202407 0.000000 
0.585938 35.816042 0.000000 
0.585938 36.202407 0.000000 

POINT_DATA 256
SCALARS sigma_xx FLOAT 1
LOOKUP_TABLE default
0.000000
0.000000
0.000000
0.000000
0.000000
0.000000
0.000000
0.000000
0.000000
-0.000000
0.000000
-0.000000
-0.000000
0.000000
-0.000000
0.000000
0.000000
-0.000000
0.000000
-0.000000
-0.000000
0.000000
-0.000000
0.000000
-0.000000
-0.000000
-0.000000
-0.000000
0.000000
0.000000
0.000000
0.000000
-0.000000
0.000000
-0.000000
0.000000
0.000000
0.000000
0.000000
0.000000
-0.000000
-0.000000
-0.000000
-0.000000
-0.000000
-0.000000
-0.000000
-0.000000
0.000000
-0.000000
0.000000
-0.000000
-0.000000
0.000000
-0.000000
0.000000
-0.000000
-0.000000
-0.000000
-0.000000
0.000000
-0.000000
0.000000
-0.000000
-0.000000
-0.000000
-0.000000
-0.000000
-0.000000
-0.000000
-0.000000
-0.000000
0.000000
-0.000000
0.000000
0.000000
0.000000
-0.000000
0.000000
-0.000000
-0.000000
0.000000
-0.000000
0.000000
0.000000
0.000000
0.000000
0.000000
0.000000
-0.000000
0.000000
-0.000000
-0.000000
0.000000
-0.000000
0.000000
-0.000000
-0.000000
-0.000000
-0.000000
0.000000
-0.000000
0.000000
-0.000000
-0.000000
0.000000
-0.000000
-0.000000
-0.000000
-0.000000
-0.000000
-0.000000
-0.000000
-0.000000
-0.000000
-0.000000
0.000000
0.000000
0.000000
0.000000
-0.000000
-0.000000
-0.000000
-0.000000
0.000000
0.000000
0.000000
0.000000
-0.000000
0.000000
-0.000000
0.000000
-0.000000
0.000000
0.000000
0.000000
0.000000
-0.000000
-0.000000
-0.000000
-0.000000
-0.000000
-0.000000
-0.000000
-0.000000
-0.000000
0.000000
-0.000000
0.000000
0.000000
-0.000000
0.000000
-0.000000
-0.000000
-0.000000
-0.000000
-0.000000
0.000000
-0.000000
0.000000
-0.000000
0.000000
-0.000000
0.000000
-0.000000
0.000000
-0.000000
0.000000
0.000000
0.000000
0.000000
0.000000
0.000000
-0.000000
0.000000
-0.000000
0.000000
-0.000000
-0.000000
-0.000000
-0.000000
-0.000000
-0.000000
-0.000000
-0.000000
-0.000000
-0.000000
-0.000000
-0.000000
-0.000000
-0.000000
-0.000000
-0.000000
-0.000000
-0.000000
-0.000000
-0.000000
-0.000000
-0.000000
-0.000000
-0.000000
-0.000000
-0.000000
-0.000000
-0.000000
0.000000
0.000000
-0.000000
-0.000000
0.000000
-0.000000
0.000000
0.000000
-0.000000
0.000000
-0.000000
-0.000000
0.000000
-0.000000
0.000000
-0.000000
-0.000000
-0.000000
-0.000000
0.000000
0.000000
0.000000
0.000000
0.000000
-0.000000
0.000000
-0.000000
0.000000
-0.000000
0.000000
0.000000
-0.000000
-0.000000
-0.000000
-0.000000
0.000000
-0.000000
0.000000
-0.000000
-0.000000
-0.000000
-0.000000
-0.000000
-0.000000
-0.000000
-0.000000
0.000000
-0.000000
-0.000000
-0.000000
0.000000

SCALARS sigma_yy FLOAT 1
LOOKUP_TABLE default
-9919.887027
-9919.887027
-9919.887027
-9919.887027
-9820.224968
-9718.463743
-9820.224968
-9718.463743
-9646.695535
-9581.651387
-9646.695535
-9581.651387
-9481.656826
-9415.787566
-9481.656826
-9415.787566
-9334.657310
-9255.584092
-9334.657310
-9255.584092
-9172.094675
-9112.546385
-9172.094675
-9112.546385
-9026.046954
-8948.061811
-9026.046954
-8948.061811
-8864.021117
-8794.649928
-8864.021117
-8794.649928
-8703.900872
-8635.647607
-8703.900872
-8635.647607
-8549.489887
-8477.572346
-8549.489887
-8477.572346
-8389.578767
-8327.983047
-8389.578767
-8327.983047
-8237.838758
-8172.072414
-8237.838758
-8172.072414
-8078.541227
-8016.254242
-8078.541227
-8016.254242
-7920.060224
-7865.873670
-7920.060224
-7865.873670
-7766.525455
-7704.663666
-7766.525455
-7704.663666
-7606.000081
-7547.434178
-7606.000081
-7547.434178
-7450.957053
-7386.085926
-7450.957053
-7386.085926
-7307.320726
-7230.031892
-7307.320726
-7230.031892
-7148.399895
-7065.086668
-7148.399895
-7065.086668
-6997.213836
-6908.807343
-6997.213836
-6908.807343
-6834.229603
-6762.899825
-6834.229603
-6762.899825
-6676.715649
-6613.007932
-6676.715649
-6613.007932
-6509.614470
-6455.525769
-6509.614470
-6455.525769
-6359.336117
-6295.376423
-6359.336117
-6295.376423
-6208.129653
-6131.401000
-6208.129653
-6131.401000
-6055.438362
-5972.763635
-6055.438362
-5972.763635
-5898.936701
-5822.304200
-5898.936701
-5822.304200
-5728.543612
-5679.156763
-5728.543612
-5679.156763
-5570.735234
-5522.749220
-5570.735234
-5522.749220
-5421.465280
-5354.667985
-5421.465280
-5354.667985
-5270.561228
-5200.830395
-5270.561228
-5200.830395
-5116.440023
-5046.342587
-5116.440023
-5046.342587
-4954.819207
-4897.957040
-4954.819207
-4897.957040
-4788.203006
-4737.265414
-4788.203006
-4737.265414
-4629.569899
-4573.495836
-4629.569899
-4573.495836
-4492.020547
-4413.300463
-4492.020547
-4413.300463
-4344.470088
-4256.406724
-4344.470088
-4256.406724
-4180.216543
-4106.426232
-4180.216543
-4106.426232
-4005.371281
-3951.193031
-4005.371281
-3951.193031
-3870.709767
-3788.146681
-3870.709767
-3788.146681
-3720.029616
-3616.834666
-3720.029616
-3616.834666
-3566.353359
-3468.818169
-3566.353359
-3468.818169
-3400.330113
-3326.330661
-3400.330113
-3326.330661
-3234.037329
-3173.514433
-3234.037329
-3173.514433
-3080.654302
-3012.903203
-3080.654302
-3012.903203
-2927.277635
-2851.621315
-2927.277635
-2851.621315
-2773.124706
-2696.409028
-2773.124706
-2696.409028
-2613.054284
-2546.682366
-2613.054284
-2546.682366
-2440.647190
-2395.436431
-2440.647190
-2395.436431
-2290.582110
-2251.378046
-2290.582110
-2251.378046
-2137.997580
-2084.251622
-2137.997580
-2084.251622
-1978.574929
-1920.058585
-1978.574929
-1920.058585
-1829.212001
-1763.608269
-1829.212001
-1763.608269
-1678.555291
-1606.535490
-1678.555291
-1606.535490
-1517.424753
-1449.759250
-1517.424753
-1449.759250
-1357.797139
-1293.021523
-1357.797139
-1293.021523
-1201.526231
-1139.443500
-1201.526231
-1139.443500
-1048.906084
-988.129191
-1048.906084
-988.129191
-893.072853
-828.332658
-893.072853
-828.332658
-738.046803
-669.543372
-738.046803
-669.543372
-581.517173
-510.759102
-581.517173
-510.759102
-428.197782
-356.233811
-428.197782
-356.233811
-266.491623
-182.684757
-266.491623
-182.684757
-138.961173
-23.481504
-138.961173
-23.481504

SCALARS sigma_zz FLOAT 1
LOOKUP_TABLE default
0.000000
0.000000
0.000000
0.000000
0.000000
0.000000
0.000000
0.000000
0.000000
0.000000
0.000000
0.000000
0.000000
0.000000
0.000000
0.000000
0.000000
0.000000
0.000000
0.000000
0.000000
0.000000
0.000000
0.000000
0.000000
0.000000
0.000000
0.000000
0.000000
0.000000
0.000000
0.000000
0.000000
0.000000
0.000000
0.000000
0.000000
0.000000
0.000000
0.000000
0.000000
0.000000
0.000000
0.000000
0.000000
0.000000
0.000000
0.000000
0.000000
0.000000
0.000000
0.000000
0.000000
0.000000
0.000000
0.000000
0.000000
0.000000
0.000000
0.000000
0.000000
0.000000
0.000000
0.000000
0.000000
0.000000
0.000000
0.000000
0.000000
0.000000
0.000000
0.000000
0.000000
0.000000
0.000000
0.000000
0.000000
0.000000
0.000000
0.000000
0.000000
0.000000
0.000000
0.000000
0.000000
0.000000
0.000000
0.000000
0.000000
0.000000
0.000000
0.000000
0.000000
0.000000
0.000000
0.000000
0.000000
0.000000
0.000000
0.000000
0.000000
0.000000
0.000000
0.000000
0.000000
0.000000
0.000000
0.000000
0.000000
0.000000
0.000000
0.000000
0.000000
0.000000
0.000000
0.000000
0.000000
0.000000
0.000000
0.000000
0.000000
0.000000
0.000000
0.000000
0.000000
0.000000
0.000000
0.000000
0.000000
0.000000
0.000000
0.000000
0.000000
0.000000
0.000000
0.000000
0.000000
0.000000
0.000000
0.000000
0.000000
0.000000
0.000000
0.000000
0.000000
0.000000
0.000000
0.000000
0.000000
0.000000
0.000000
0.000000
0.000000
0.000000
0.000000
0.000000
0.000000
0.000000
0.000000
0.000000
0.000000
0.000000
0.000000
0.000000
0.000000
0.000000
0.000000
0.000000
0.000000
0.000000
0.000000
0.000000
0.000000
0.000000
0.000000
0.000000
0.000000
0.000000
0.000000
0.000000
0.000000
0.000000
0.000000
0.000000
0.000000
0.000000
0.000000
0.000000
0.000000
0.000000
0.000000
0.000000
0.000000
0.000000
0.000000
0.000000
0.000000
0.000000
0.000000
0.000000
0.000000
0.000000
0.000000
0.000000
0.000000
0.000000
0.000000
0.000000
0.000000
0.000000
0.000000
0.000000
0.000000
0.000000
0.000000
0.000000
0.000000
0.000000
0.000000
0.000000
0.000000
0.000000
0.000000
0.000000
0.000000
0.000000
0.000000
0.000000
0.000000
0.000000
0.000000
0.000000
0.000000
0.000000
0.000000
0.000000
0.000000
0.000000
0.000000
0.000000
0.000000
0.000000
0.000000
0.000000
0.000000
0.000000
0.000000
0.000000
0.000000
0.000000
0.000000
0.000000
0.000000
0.000000
0.000000
0.000000

SCALARS sigma_xy FLOAT 1
LOOKUP_TABLE default
0.000000
0.000000
0.000000
0.000000
0.000000
0.000000
0.000000
0.000000
0.000000
0.000000
0.000000
0.000000
0.000000
0.000000
0.000000
0.000000
0.000000
-0.000000
0.000000
-0.000000
-0.000000
0.000000
-0.000000
0.000000
0.000000
0.000000
0.000000
0.000000
0.000000
0.000000
0.000000
0.000000
-0.000000
0.000000
-0.000000
0.000000
0.000000
0.000000
0.000000
0.000000
-0.000000
-0.000000
-0.000000
-0.000000
-0.000000
-0.000000
-0.000000
-0.000000
0.000000
0.000000
0.000000
0.000000
0.000000
0.000000
0.000000
0.000000
-0.000000
-0.000000
-0.000000
-0.000000
0.000000
0.000000
0.000000
0.000000
0.000000
0.000000
0.000000
0.000000
-0.000000
-0.000000
-0.000000
-0.000000
0.000000
0.000000
0.000000
0.000000
0.000000
-0.000000
0.000000
-0.000000
0.000000
0.000000
0.000000
0.000000
0.000000
0.000000
0.000000
0.000000
0.000000
0.000000
0.000000
0.000000
0.000000
0.000000
0.000000
0.000000
-0.000000
-0.000000
-0.000000
-0.000000
0.000000
0.000000
0.000000
0.000000
0.000000
0.000000
0.000000
-0.000000
-0.000000
-0.000000
-0.000000
-0.000000
0.000000
0.000000
0.000000
0.000000
0.000000
0.000000
0.000000
0.000000
-0.000000
-0.000000
-0.000000
-0.000000
0.000000
0.000000
0.000000
0.000000
-0.000000
0.000000
-0.000000
0.000000
0.000000
0.000000
0.000000
0.000000
0.000000
-0.000000
-0.000000
-0.000000
0.000000
0.000000
0.000000
0.000000
-0.000000
0.000000
0.000000
0.000000
0.000000
0.000000
0.000000
0.000000
-0.000000
-0.000000
-0.000000
-0.000000
0.000000
0.000000
0.000000
0.000000
0.000000
0.000000
-0.000000
0.000000
-0.000000
0.000000
-0.000000
0.000000
0.000000
0.000000
0.000000
0.000000
0.000000
0.000000
0.000000
0.000000
0.000000
-0.000000
-0.000000
-0.000000
-0.000000
0.000000
-0.000000
0.000000
-0.000000
-0.000000
-0.000000
-0.000000
0.000000
0.000000
0.000000
0.000000
-0.000000
-0.000000
-0.000000
-0.000000
0.000000
0.000000
0.000000
0.000000
-0.000000
-0.000000
-0.000000
-0.000000
0.000000
0.000000
0.000000
0.000000
0.000000
0.000000
0.000000
0.000000
0.000000
-0.000000
0.000000
0.000000
-0.000000
0.000000
-0.000000
0.000000
-0.000000
0.000000
-0.000000
0.000000
0.000000
0.000000
0.000000
0.000000
0.000000
-0.000000
0.000000
-0.000000
0.000000
-0.000000
0.000000
0.000000
0.000000
0.000000
0.000000
0.000000
0.000000
0.000000
0.000000
0.000000
-0.000000
-0.000000
-0.000000
-0.000000
-0.000000
0.000000
-0.000000
0.000000
0.000000
-0.000000
0.000000
0.000000

SCALARS sigma_yz FLOAT 1
LOOKUP_TABLE default
0.000000
0.000000
0.000000
0.000000
0.000000
0.000000
0.000000
0.000000
0.000000
0.000000
0.000000
0.000000
0.000000
0.000000
0.000000
0.000000
0.000000
0.000000
0.000000
0.000000
0.000000
0.000000
0.000000
0.000000
0.000000
0.000000
0.000000
0.000000
0.000000
0.000000
0.000000
0.000000
0.000000
0.000000
0.000000
0.000000
0.000000
0.000000
0.000000
0.000000
0.000000
0.000000
0.000000
0.000000
0.000000
0.000000
0.000000
0.000000
0.000000
0.000000
0.000000
0.000000
0.000000
0.000000
0.000000
0.000000
0.000000
0.000000
0.000000
0.000000
0.000000
0.000000
0.000000
0.000000
0.000000
0.000000
0.000000
0.000000
0.000000
0.000000
0.000000
0.000000
0.000000
0.000000
0.000000
0.000000
0.000000
0.000000
0.000000
0.000000
0.000000
0.000000
0.000000
0.000000
0.000000
0.000000
0.000000
0.000000
0.000000
0.000000
0.000000
0.000000
0.000000
0.000000
0.000000
0.000000
0.000000
0.000000
0.000000
0.000000
0.000000
0.000000
0.000000
0.000000
0.000000
0.000000
0.000000
0.000000
0.000000
0.000000
0.000000
0.000000
0.000000
0.000000
0.000000
0.000000
0.000000
0.000000
0.000000
0.000000
0.000000
0.000000
0.000000
0.000000
0.000000
0.000000
0.000000
0.000000
0.000000
0.000000
0.000000
0.000000
0.000000
0.000000
0.000000
0.000000
0.000000
0.000000
0.000000
0.000000
0.000000
0.000000
0.000000
0.000000
0.000000
0.000000
0.000000
0.000000
0.000000
0.000000
0.000000
0.000000
0.000000
0.000000
0.000000
0.000000
0.000000
0.000000
0.000000
0.000000
0.000000
0.000000
0.000000
0.000000
0.000000
0.000000
0.000000
0.000000
0.000000
0.000000
0.000000
0.000000
0.000000
0.000000
0.000000
0.000000
0.000000
0.000000
0.000000
0.000000
0.000000
0.000000
0.000000
0.000000
0.000000
0.000000
0.000000
0.000000
0.000000
0.000000
0.000000
0.000000
0.000000
0.000000
0.000000
0.000000
0.000000
0.000000
0.000000
0.000000
0.000000
0.000000
0.000000
0.000000
0.000000
0.000000
0.000000
0.000000
0.000000
0.000000
0.000000
0.000000
0.000000
0.000000
0.000000
0.000000
0.000000
0.000000
0.000000
0.000000
0.000000
0.000000
0.000000
0.000000
0.000000
0.000000
0.000000
0.000000
0.000000
0.000000
0.000000
0.000000
0.000000
0.000000
0.000000
0.000000
0.000000
0.000000
0.000000
0.000000
0.000000
0.000000
0.000000
0.000000
0.000000
0.000000
0.000000
0.000000
0.000000
0.000000
0.000000
0.000000
0.000000
0.000000
0.000000
0.000000

SCALARS sigma_zx FLOAT 1
LOOKUP_TABLE default
0.000000
0.000000
0.000000
0.000000
0.000000
0.000000
0.000000
0.000000
0.000000
0.000000
0.000000
0.000000
0.000000
0.000000
0.000000
0.000000
0.000000
0.000000
0.000000
0.000000
0.000000
0.000000
0.000000
0.000000
0.000000
0.000000
0.000000
0.000000
0.000000
0.000000
0.000000
0.000000
0.000000
0.000000
0.000000
0.000000
0.000000
0.000000
0.000000
0.000000
0.000000
0.000000
0.000000
0.000000
0.000000
0.000000
0.000000
0.000000
0.000000
0.000000
0.000000
0.000000
0.000000
0.000000
0.000000
0.000000
0.000000
0.000000
0.000000
0.000000
0.000000
0.000000
0.000000
0.000000
0.000000
0.000000
0.000000
0.000000
0.000000
0.000000
0.000000
0.000000
0.000000
0.000000
0.000000
0.000000
0.000000
0.000000
0.000000
0.000000
0.000000
0.000000
0.000000
0.000000
0.000000
0.000000
0.000000
0.000000
0.000000
0.000000
0.000000
0.000000
0.000000
0.000000
0.000000
0.000000
0.000000
0.000000
0.000000
0.000000
0.000000
0.000000
0.000000
0.000000
0.000000
0.000000
0.000000
0.000000
0.000000
0.000000
0.000000
0.000000
0.000000
0.000000
0.000000
0.000000
0.000000
0.000000
0.000000
0.000000
0.000000
0.000000
0.000000
0.000000
0.000000
0.000000
0.000000
0.000000
0.000000
0.000000
0.000000
0.000000
0.000000
0.000000
0.000000
0.000000
0.000000
0.000000
0.000000
0.000000
0.000000
0.000000
0.000000
0.000000
0.000000
0.000000
0.000000
0.000000
0.000000
0.000000
0.000000
0.000000
0.000000
0.000000
0.000000
0.000000
0.000000
0.000000
0.000000
0.000000
0.000000
0.000000
0.000000
0.000000
0.000000
0.000000
0.000000
0.000000
0.000000
0.000000
0.000000
0.000000
0.000000
0.000000
0.000000
0.000000
0.000000
0.000000
0.000000
0.000000
0.000000
0.000000
0.000000
0.000000
0.000000
0.000000
0.000000
0.000000
0.000000
0.000000
0.000000
0.000000
0.000000
0.000000
0.000000
0.000000
0.000000
0.000000
0.000000
0.000000
0.000000
0.000000
0.000000
0.000000
0.000000
0.000000
0.000000
0.000000
0.000000
0.000000
0.000000
0.000000
0.000000
0.000000
0.000000
0.000000
0.000000
0.000000
0.000000
0.000000
0.000000
0.000000
0.000000
0.000000
0.000000
0.000000
0.000000
0.000000
0.000000
0.000000
0.000000
0.000000
0.000000
0.000000
0.000000
0.000000
0.000000
0.000000
0.000000
0.000000
0.000000
0.000000
0.000000
0.000000
0.000000
0.000000
0.000000
0.000000
0.000000
0.000000
0.000000
0.000000
0.000000
0.000000
0.000000
0.000000

SCALARS u_x FLOAT 1
LOOKUP_TABLE default
0.000000
0.000000
0.000000
0.000000
0.000000
0.000000
0.000000
0.000000
0.000000
0.000000
0.000000
0.000000
0.000000
0.000000
0.000000
0.000000
0.000000
0.000000
0.000000
0.000000
0.000000
0.000000
0.000000
0.000000
0.000000
0.000000
0.000000
0.000000
0.000000
0.000000
0.000000
0.000000
0.000000
0.000000
0.000000
0.000000
0.000000
0.000000
0.000000
0.000000
0.000000
0.000000
0.000000
0.000000
0.000000
0.000000
0.000000
0.000000
0.000000
0.000000
0.000000
0.000000
0.000000
0.000000
0.000000
0.000000
0.000000
0.000000
0.000000
0.000000
0.000000
0.000000
0.000000
0.000000
0.000000
0.000000
0.000000
0.000000
0.000000
0.000000
0.000000
0.000000
0.000000
0.000000
0.000000
0.000000
0.000000
0.000000
0.000000
0.000000
0.000000
0.000000
0.000000
0.000000
0.000000
0.000000
0.000000
0.000000
0.000000
0.000000
0.000000
0.000000
0.000000
0.000000
0.000000
0.000000
0.000000
0.000000
0.000000
0.000000
0.000000
0.000000
0.000000
0.000000
0.000000
0.000000
0.000000
0.000000
0.000000
0.000000
0.000000
0.000000
0.000000
0.000000
0.000000
0.000000
0.000000
0.000000
0.000000
0.000000
0.000000
0.000000
0.000000
0.000000
0.000000
0.000000
0.000000
0.000000
0.000000
0.000000
0.000000
0.000000
0.000000
0.000000
0.000000
0.000000
0.000000
0.000000
0.000000
0.000000
0.000000
0.000000
0.000000
0.000000
0.000000
0.000000
0.000000
0.000000
0.000000
0.000000
0.000000
0.000000
0.000000
0.000000
0.000000
0.000000
0.000000
0.000000
0.000000
0.000000
0.000000
0.000000
0.000000
0.000000
0.000000
0.000000
0.000000
0.000000
0.000000
0.000000
0.000000
0.000000
0.000000
0.000000
0.000000
0.000000
0.000000
0.000000
0.000000
0.000000
0.000000
0.000000
0.000000
0.000000
0.000000
0.000000
0.000000
0.000000
0.000000
0.000000
0.000000
0.000000
0.000000
0.000000
0.000000
0.000000
0.000000
0.000000
0.000000
0.000000
0.000000
0.000000
0.000000
0.000000
0.000000
0.000000
0.000000
0.000000
0.000000
0.000000
0.000000
0.000000
0.000000
0.000000
0.000000
0.000000
0.000000
0.000000
0.000000
0.000000
0.000000
0.000000
0.000000
0.000000
0.000000
0.000000
0.000000
0.000000
0.000000
0.000000
0.000000
0.000000
0.000000
0.000000
0.000000
0.000000
0.000000
0.000000
0.000000
0.000000
0.000000
0.000000
0.000000
0.000000
0.000000
0.000000
0.000000
0.000000
0.000000
0.000000
0.000000
0.000000
0.000000
0.000000
0.000000
0.000000

SCALARS u_y FLOAT 1
LOOKUP_TABLE default
-0.084220
-0.252660
-0.084220
-0.252660
-0.420793
-0.587939
-0.420793
-0.587939
-0.754459
-0.920385
-0.754459
-0.920385
-1.085650
-1.250165
-1.085650
-1.250165
-1.414110
-1.577337
-1.414110
-1.577337
-1.739858
-1.901763
-1.739858
-1.901763
-2.063057
-2.223589
-2.063057
-2.223589
-2.383413
-2.542562
-2.383413
-2.542562
-2.700997
-2.858684
-2.700997
-2.858684
-3.015661
-3.171914
-3.015661
-3.171914
-3.327367
-3.482196
-3.327367
-3.482196
-3.636256
-3.789619
-3.636256
-3.789619
-3.942125
-4.093948
-3.942125
-4.093948
-4.244941
-4.395266
-4.244941
-4.395266
-4.544747
-4.693435
-4.544747
-4.693435
-4.841333
-4.988414
-4.841333
-4.988414
-5.134689
-5.280029
-5.134689
-5.280029
-5.424814
-5.568577
-5.424814
-5.568577
-5.711580
-5.853628
-5.711580
-5.853628
-5.994933
-6.135331
-5.994933
-6.135331
-6.274771
-6.413558
-6.274771
-6.413558
-6.551213
-6.688218
-6.551213
-6.688218
-6.824110
-6.959180
-6.824110
-6.959180
-7.093327
-7.226510
-7.093327
-7.226510
-7.358849
-7.490054
-7.358849
-7.490054
-7.620444
-7.749815
-7.620444
-7.749815
-7.878152
-8.005691
-7.878152
-8.005691
-8.131889
-8.257388
-8.131889
-8.257388
-8.381708
-8.505108
-8.381708
-8.505108
-8.627527
-8.748688
-8.627527
-8.748688
-8.868954
-8.988053
-8.868954
-8.988053
-9.106162
-9.223187
-9.106162
-9.223187
-9.338949
-9.453779
-9.338949
-9.453779
-9.567284
-9.679701
-9.567284
-9.679701
-9.791003
-9.900815
-9.791003
-9.900815
-10.009873
-10.117414
-10.009873
-10.117414
-10.224055
-10.329328
-10.224055
-10.329328
-10.433270
-10.536095
-10.433270
-10.536095
-10.637392
-10.737408
-10.637392
-10.737408
-10.836492
-10.933896
-10.836492
-10.933896
-11.030257
-11.124906
-11.030257
-11.124906
-11.218327
-11.310511
-11.218327
-11.310511
-11.400941
-11.490381
-11.400941
-11.490381
-11.577961
-11.664356
-11.577961
-11.664356
-11.749163
-11.832461
-11.749163
-11.832461
-11.914167
-11.994333
-11.914167
-11.994333
-12.072843
-12.149960
-12.072843
-12.149960
-12.225152
-12.299118
-12.225152
-12.299118
-12.370827
-12.441228
-12.370827
-12.441228
-12.509734
-12.576799
-12.509734
-12.576799
-12.642111
-12.705366
-12.642111
-12.705366
-12.766882
-12.826256
-12.766882
-12.826256
-12.884029
-12.939706
-12.884029
-12.939706
-12.993646
-13.045500
-12.993646
-13.045500
-13.095285
-13.143000
-13.095285
-13.143000
-13.188551
-13.231940
-13.188551
-13.231940
-13.273187
-13.312199
-13.273187
-13.312199
-13.349077
-13.383634
-13.349077
-13.383634
-13.416005
-13.445737
-13.416005
-13.445737
-13.473268
-13.498053
-13.473268
-13.498053
-13.520537
-13.540136
-13.520537
-13.540136
-13.557405
-13.571758
-13.557405
-13.571758
-13.583604
-13.591774
-13.583604
-13.591774
-13.598020
-13.602280
-13.598020
-13.602280

