# vtk DataFile Version 2.0
MATLAB generated vtk file, WMC
ASCII
DATASET UNSTRUCTURED_GRID
POINTS 256 double
0.195312 0.060699 0.000000 
0.195312 0.182097 0.000000 
0.585938 0.060699 0.000000 
0.585938 0.182097 0.000000 
0.195312 0.303663 0.000000 
0.195312 0.425780 0.000000 
0.585938 0.303663 0.000000 
0.585938 0.425780 0.000000 
0.195312 0.548437 0.000000 
0.195312 0.671742 0.000000 
0.585938 0.548437 0.000000 
0.585938 0.671742 0.000000 
0.195312 0.795663 0.000000 
0.195312 0.920125 0.000000 
0.585938 0.795663 0.000000 
0.585938 0.920125 0.000000 
0.195312 1.045063 0.000000 
0.195312 1.170555 0.000000 
0.585938 1.045063 0.000000 
0.585938 1.170555 0.000000 
0.195312 1.296609 0.000000 
0.195312 1.423266 0.000000 
0.585938 1.296609 0.000000 
0.585938 1.423266 0.000000 
0.195312 1.550528 0.000000 
0.195312 1.678395 0.000000 
0.585938 1.550528 0.000000 
0.585938 1.678395 0.000000 
0.195312 1.806796 0.000000 
0.195312 1.935788 0.000000 
0.585938 1.806796 0.000000 
0.585938 1.935788 0.000000 
0.195312 2.065373 0.000000 
0.195312 2.195579 0.000000 
0.585938 2.065373 0.000000 
0.585938 2.195579 0.000000 
0.195312 2.326422 0.000000 
0.195312 2.457890 0.000000 
0.585938 2.326422 0.000000 
0.585938 2.457890 0.000000 
0.195312 2.589991 0.000000 
0.195312 2.722724 0.000000 
0.585938 2.589991 0.000000 
0.585938 2.722724 0.000000 
0.195312 2.856115 0.000000 
0.195312 2.990155 0.000000 
0.585938 2.856115 0.000000 
0.585938 2.990155 0.000000 
0.195312 3.124886 0.000000 
0.195312 3.260271 0.000000 
0.585938 3.124886 0.000000 
0.585938 3.260271 0.000000 
0.195312 3.396333 0.000000 
0.195312 3.533034 0.000000 
0.585938 3.396333 0.000000 
0.585938 3.533034 0.000000 
0.195312 3.670474 0.000000 
0.195312 3.808636 0.000000 
0.585938 3.670474 0.000000 
0.585938 3.808636 0.000000 
0.195312 3.947511 0.000000 
0.195312 4.087098 0.000000 
0.585938 3.947511 0.000000 
0.585938 4.087098 0.000000 
0.195312 4.227403 0.000000 
0.195312 4.368487 0.000000 
0.585938 4.227403 0.000000 
0.585938 4.368487 0.000000 
0.195312 4.510250 0.000000 
0.195312 4.652859 0.000000 
0.585938 4.510250 0.000000 
0.585938 4.652859 0.000000 
0.195312 4.796212 0.000000 
0.195312 4.940373 0.000000 
0.585938 4.796212 0.000000 
0.585938 4.940373 0.000000 
0.195312 5.085288 0.000000 
0.195312 5.231020 0.000000 
0.585938 5.085288 0.000000 
0.585938 5.231020 0.000000 
0.195312 5.377624 0.000000 
0.195312 5.524986 0.000000 
0.585938 5.377624 0.000000 
0.585938 5.524986 0.000000 
0.195312 5.673277 0.000000 
0.195312 5.822321 0.000000 
0.585938 5.673277 0.000000 
0.585938 5.822321 0.000000 
0.195312 5.972337 0.000000 
0.195312 6.123191 0.000000 
0.585938 5.972337 0.000000 
0.585938 6.123191 0.000000 
0.195312 6.274974 0.000000 
0.195312 6.427622 0.000000 
0.585938 6.274974 0.000000 
0.585938 6.427622 0.000000 
0.195312 6.581146 0.000000 
0.195312 6.735665 0.000000 
0.585938 6.581146 0.000000 
0.585938 6.735665 0.000000 
0.195312 6.891077 0.000000 
0.195312 7.047465 0.000000 
0.585938 6.891077 0.000000 
0.585938 7.047465 0.000000 
0.195312 7.204899 0.000000 
0.195312 7.363198 0.000000 
0.585938 7.204899 0.000000 
0.585938 7.363198 0.000000 
0.195312 7.522634 0.000000 
0.195312 7.683031 0.000000 
0.585938 7.522634 0.000000 
0.585938 7.683031 0.000000 
0.195312 7.844504 0.000000 
0.195312 8.007012 0.000000 
0.585938 7.844504 0.000000 
0.585938 8.007012 0.000000 
0.195312 8.170598 0.000000 
0.195312 8.335260 0.000000 
0.585938 8.170598 0.000000 
0.585938 8.335260 0.000000 
0.195312 8.501108 0.000000 
0.195312 8.668132 0.000000 
0.585938 8.501108 0.000000 
0.585938 8.668132 0.000000 
0.195312 8.836185 0.000000 
0.195312 9.005456 0.000000 
0.585938 8.836185 0.000000 
0.585938 9.005456 0.000000 
0.195312 9.175991 0.000000 
0.195312 9.347618 0.000000 
0.585938 9.175991 0.000000 
0.585938 9.347618 0.000000 
0.195312 9.520574 0.000000 
0.195312 9.694705 0.000000 
0.585938 9.520574 0.000000 
0.585938 9.694705 0.000000 
0.195312 9.870103 0.000000 
0.195312 10.047005 0.000000 
0.585938 9.870103 0.000000 
0.585938 10.047005 0.000000 
0.195312 10.225118 0.000000 
0.195312 10.404685 0.000000 
0.585938 10.225118 0.000000 
0.585938 10.404685 0.000000 
0.195312 10.585545 0.000000 
0.195312 10.767834 0.000000 
0.585938 10.585545 0.000000 
0.585938 10.767834 0.000000 
0.195312 10.951560 0.000000 
0.195312 11.136785 0.000000 
0.585938 10.951560 0.000000 
0.585938 11.136785 0.000000 
0.195312 11.323550 0.000000 
0.195312 11.511901 0.000000 
0.585938 11.323550 0.000000 
0.585938 11.511901 0.000000 
0.195312 11.701761 0.000000 
0.195312 11.893298 0.000000 
0.585938 11.701761 0.000000 
0.585938 11.893298 0.000000 
0.195312 12.086380 0.000000 
0.195312 12.281187 0.000000 
0.585938 12.086380 0.000000 
0.585938 12.281187 0.000000 
0.195312 12.477624 0.000000 
0.195312 12.675868 0.000000 
0.585938 12.477624 0.000000 
0.585938 12.675868 0.000000 
0.195312 12.876016 0.000000 
0.195312 13.077850 0.000000 
0.585938 12.876016 0.000000 
0.585938 13.077850 0.000000 
0.195312 13.281786 0.000000 
0.195312 13.487469 0.000000 
0.585938 13.281786 0.000000 
0.585938 13.487469 0.000000 
0.195312 13.695168 0.000000 
0.195312 13.904870 0.000000 
0.585938 13.695168 0.000000 
0.585938 13.904870 0.000000 
0.195312 14.116906 0.000000 
0.195312 14.331008 0.000000 
0.585938 14.116906 0.000000 
0.585938 14.331008 0.000000 
0.195312 14.547251 0.000000 
0.195312 14.765672 0.000000 
0.585938 14.547251 0.000000 
0.585938 14.765672 0.000000 
0.195312 14.986414 0.000000 
0.195312 15.209344 0.000000 
0.585938 14.986414 0.000000 
0.585938 15.209344 0.000000 
0.195312 15.435043 0.000000 
0.195312 15.663338 0.000000 
0.585938 15.435043 0.000000 
0.585938 15.663338 0.000000 
0.195312 15.894319 0.000000 
0.195312 16.127718 0.000000 
0.585938 15.894319 0.000000 
0.585938 16.127718 0.000000 
0.195312 16.363976 0.000000 
0.195312 16.603233 0.000000 
0.585938 16.363976 0.000000 
0.585938 16.603233 0.000000 
0.195312 16.845257 0.000000 
0.195312 17.090493 0.000000 
0.585938 16.845257 0.000000 
0.585938 17.090493 0.000000 
0.195312 17.338735 0.000000 
0.195312 17.590421 0.000000 
0.585938 17.338735 0.000000 
0.585938 17.590421 0.000000 
0.195312 17.845311 0.000000 
0.195312 18.103848 0.000000 
0.585938 17.845311 0.000000 
0.585938 18.103848 0.000000 
0.195312 18.366186 0.000000 
0.195312 18.632214 0.000000 
0.585938 18.366186 0.000000 
0.585938 18.632214 0.000000 
0.195312 18.902456 0.000000 
0.195312 19.176523 0.000000 
0.585938 18.902456 0.000000 
0.585938 19.176523 0.000000 
0.195312 19.454971 0.000000 
0.195312 19.737679 0.000000 
0.585938 19.454971 0.000000 
0.585938 19.737679 0.000000 
0.195312 20.025108 0.000000 
0.195312 20.317612 0.000000 
0.585938 20.025108 0.000000 
0.585938 20.317612 0.000000 
0.195312 20.615134 0.000000 
0.195312 20.918645 0.000000 
0.585938 20.615134 0.000000 
0.585938 20.918645 0.000000 
0.195312 21.227755 0.000000 
0.195312 21.542953 0.000000 
0.585938 21.227755 0.000000 
0.585938 21.542953 0.000000 
0.195312 21.863438 0.000000 
0.195312 22.191859 0.000000 
0.585938 21.863438 0.000000 
0.585938 22.191859 0.000000 
0.195312 22.527583 0.000000 
0.195312 22.870741 0.000000 
0.585938 22.527583 0.000000 
0.585938 22.870741 0.000000 
0.195312 23.220442 0.000000 
0.195312 23.582780 0.000000 
0.585938 23.220442 0.000000 
0.585938 23.582780 0.000000 
0.195312 23.951043 0.000000 
0.195312 24.320795 0.000000 
0.585938 23.951043 0.000000 
0.585938 24.320795 0.000000 

POINT_DATA 256
SCALARS sigma_xx FLOAT 1
LOOKUP_TABLE default
0.000000
0.000000
0.000000
0.000000
-0.000000
-0.000000
-0.000000
-0.000000
-0.000000
-0.000000
-0.000000
-0.000000
-0.000000
-0.000000
-0.000000
-0.000000
-0.000000
-0.000000
-0.000000
-0.000000
-0.000000
-0.000000
-0.000000
-0.000000
-0.000000
0.000000
-0.000000
0.000000
0.000000
0.000000
0.000000
0.000000
-0.000000
-0.000000
-0.000000
-0.000000
-0.000000
-0.000000
-0.000000
-0.000000
-0.000000
-0.000000
-0.000000
-0.000000
-0.000000
-0.000000
-0.000000
-0.000000
-0.000000
-0.000000
-0.000000
-0.000000
-0.000000
-0.000000
-0.000000
-0.000000
-0.000000
-0.000000
-0.000000
-0.000000
-0.000000
-0.000000
-0.000000
-0.000000
-0.000000
-0.000000
-0.000000
-0.000000
-0.000000
-0.000000
-0.000000
-0.000000
-0.000000
-0.000000
-0.000000
-0.000000
-0.000000
-0.000000
-0.000000
-0.000000
-0.000000
-0.000000
-0.000000
-0.000000
-0.000000
-0.000000
-0.000000
-0.000000
-0.000000
-0.000000
-0.000000
-0.000000
-0.000000
-0.000000
-0.000000
-0.000000
-0.000000
-0.000000
0.000000
-0.000000
-0.000000
-0.000000
-0.000000
-0.000000
-0.000000
-0.000000
-0.000000
-0.000000
-0.000000
-0.000000
-0.000000
-0.000000
-0.000000
-0.000000
-0.000000
-0.000000
-0.000000
-0.000000
-0.000000
-0.000000
-0.000000
-0.000000
-0.000000
-0.000000
-0.000000
-0.000000
-0.000000
-0.000000
-0.000000
-0.000000
-0.000000
-0.000000
-0.000000
-0.000000
-0.000000
-0.000000
-0.000000
-0.000000
0.000000
-0.000000
0.000000
-0.000000
0.000000
-0.000000
-0.000000
-0.000000
-0.000000
-0.000000
-0.000000
-0.000000
-0.000000
-0.000000
-0.000000
-0.000000
-0.000000
-0.000000
-0.000000
-0.000000
-0.000000
-0.000000
-0.000000
-0.000000
0.000000
-0.000000
-0.000000
-0.000000
-0.000000
0.000000
-0.000000
-0.000000
-0.000000
-0.000000
-0.000000
-0.000000
-0.000000
-0.000000
-0.000000
-0.000000
-0.000000
-0.000000
-0.000000
-0.000000
-0.000000
-0.000000
-0.000000
-0.000000
-0.000000
-0.000000
-0.000000
0.000000
-0.000000
-0.000000
-0.000000
-0.000000
-0.000000
-0.000000
-0.000000
-0.000000
-0.000000
-0.000000
-0.000000
-0.000000
-0.000000
-0.000000
-0.000000
-0.000000
-0.000000
-0.000000
-0.000000
-0.000000
-0.000000
-0.000000
-0.000000
-0.000000
-0.000000
-0.000000
-0.000000
-0.000000
-0.000000
-0.000000
-0.000000
0.000000
-0.000000
-0.000000
0.000000
0.000000
0.000000
0.000000
-0.000000
-0.000000
-0.000000
-0.000000
0.000000
-0.000000
0.000000
-0.000000
0.000000
0.000000
0.000000
0.000000
-0.000000
-0.000000
-0.000000
-0.000000
-0.000000
-0.000000
-0.000000
-0.000000
-0.000000
0.000000
-0.000000
0.000000
-0.000000
-0.000000
-0.000000
-0.000000

SCALARS sigma_yy FLOAT 1
LOOKUP_TABLE default
-37604.511664
-37604.511664
-37604.511664
-37604.511664
-37351.544487
-37059.289353
-37351.544487
-37059.289353
-36698.873838
-36371.964956
-36698.873838
-36371.964956
-36014.666696
-35784.223591
-36014.666696
-35784.223591
-35487.468285
-35207.269568
-35487.468285
-35207.269568
-34885.204984
-34593.006027
-34885.204984
-34593.006027
-34254.634645
-33991.041219
-34254.634645
-33991.041219
-33694.385473
-33415.443819
-33694.385473
-33415.443819
-33095.410723
-32819.686519
-33095.410723
-32819.686519
-32489.326701
-32226.505595
-32489.326701
-32226.505595
-31904.980444
-31625.486532
-31904.980444
-31625.486532
-31298.145130
-31036.240364
-31298.145130
-31036.240364
-30706.173737
-30441.488029
-30706.173737
-30441.488029
-30124.707726
-29856.256641
-30124.707726
-29856.256641
-29525.327067
-29248.829527
-29525.327067
-29248.829527
-28922.679478
-28665.644599
-28922.679478
-28665.644599
-28355.674655
-28054.892335
-28355.674655
-28054.892335
-27764.160356
-27468.048833
-27764.160356
-27468.048833
-27162.000008
-26869.170161
-27162.000008
-26869.170161
-26576.117709
-26283.901239
-26576.117709
-26283.901239
-25956.372996
-25691.727105
-25956.372996
-25691.727105
-25377.706758
-25098.919429
-25377.706758
-25098.919429
-24758.020594
-24495.171795
-24758.020594
-24495.171795
-24173.688082
-23910.398975
-24173.688082
-23910.398975
-23605.289275
-23306.531879
-23605.289275
-23306.531879
-23012.242283
-22711.731598
-23012.242283
-22711.731598
-22406.491049
-22135.598438
-22406.491049
-22135.598438
-21814.144304
-21532.769150
-21814.144304
-21532.769150
-21216.500309
-20939.968378
-21216.500309
-20939.968378
-20627.763182
-20344.327816
-20627.763182
-20344.327816
-20014.740027
-19746.119674
-20014.740027
-19746.119674
-19440.038992
-19159.964891
-19440.038992
-19159.964891
-18833.842821
-18580.354464
-18833.842821
-18580.354464
-18245.534444
-17985.208445
-18245.534444
-17985.208445
-17652.371868
-17368.370670
-17652.371868
-17368.370670
-17060.720220
-16774.124675
-17060.720220
-16774.124675
-16477.025705
-16185.959884
-16477.025705
-16185.959884
-15886.007899
-15596.328601
-15886.007899
-15596.328601
-15270.687593
-14985.927389
-15270.687593
-14985.927389
-14694.384382
-14384.474682
-14694.384382
-14384.474682
-14115.291383
-13809.455279
-14115.291383
-13809.455279
-13515.609176
-13207.582619
-13515.609176
-13207.582619
-12918.141011
-12608.471418
-12918.141011
-12608.471418
-12316.021500
-12031.748363
-12316.021500
-12031.748363
-11731.007910
-11420.210429
-11731.007910
-11420.210429
-11119.409768
-10820.957236
-11119.409768
-10820.957236
-10543.740610
-10250.643258
-10543.740610
-10250.643258
-9961.186185
-9669.996391
-9961.186185
-9669.996391
-9329.918834
-9048.827481
-9329.918834
-9048.827481
-8740.669984
-8477.478789
-8740.669984
-8477.478789
-8148.433235
-7870.091413
-8148.433235
-7870.091413
-7571.149420
-7275.085961
-7571.149420
-7275.085961
-6983.991408
-6679.429526
-6983.991408
-6679.429526
-6383.002687
-6087.209808
-6383.002687
-6087.209808
-5786.096813
-5483.532838
-5786.096813
-5483.532838
-5179.592867
-4906.056595
-5179.592867
-4906.056595
-4606.970662
-4324.740443
-4606.970662
-4324.740443
-4014.368745
-3724.334836
-4014.368745
-3724.334836
-3402.726843
-3110.600355
-3402.726843
-3110.600355
-2797.949571
-2548.546951
-2797.949571
-2548.546951
-2244.545356
-1910.046073
-2244.545356
-1910.046073
-1605.637188
-1369.222010
-1605.637188
-1369.222010
-1046.668583
-660.493482
-1046.668583
-660.493482
-584.658192
-50.884354
-584.658192
-50.884354

SCALARS sigma_zz FLOAT 1
LOOKUP_TABLE default
0.000000
0.000000
0.000000
0.000000
0.000000
0.000000
0.000000
0.000000
0.000000
0.000000
0.000000
0.000000
0.000000
0.000000
0.000000
0.000000
0.000000
0.000000
0.000000
0.000000
0.000000
0.000000
0.000000
0.000000
0.000000
0.000000
0.000000
0.000000
0.000000
0.000000
0.000000
0.000000
0.000000
0.000000
0.000000
0.000000
0.000000
0.000000
0.000000
0.000000
0.000000
0.000000
0.000000
0.000000
0.000000
0.000000
0.000000
0.000000
0.000000
0.000000
0.000000
0.000000
0.000000
0.000000
0.000000
0.000000
0.000000
0.000000
0.000000
0.000000
0.000000
0.000000
0.000000
0.000000
0.000000
0.000000
0.000000
0.000000
0.000000
0.000000
0.000000
0.000000
0.000000
0.000000
0.000000
0.000000
0.000000
0.000000
0.000000
0.000000
0.000000
0.000000
0.000000
0.000000
0.000000
0.000000
0.000000
0.000000
0.000000
0.000000
0.000000
0.000000
0.000000
0.000000
0.000000
0.000000
0.000000
0.000000
0.000000
0.000000
0.000000
0.000000
0.000000
0.000000
0.000000
0.000000
0.000000
0.000000
0.000000
0.000000
0.000000
0.000000
0.000000
0.000000
0.000000
0.000000
0.000000
0.000000
0.000000
0.000000
0.000000
0.000000
0.000000
0.000000
0.000000
0.000000
0.000000
0.000000
0.000000
0.000000
0.000000
0.000000
0.000000
0.000000
0.000000
0.000000
0.000000
0.000000
0.000000
0.000000
0.000000
0.000000
0.000000
0.000000
0.000000
0.000000
0.000000
0.000000
0.000000
0.000000
0.000000
0.000000
0.000000
0.000000
0.000000
0.000000
0.000000
0.000000
0.000000
0.000000
0.000000
0.000000
0.000000
0.000000
0.000000
0.000000
0.000000
0.000000
0.000000
0.000000
0.000000
0.000000
0.000000
0.000000
0.000000
0.000000
0.000000
0.000000
0.000000
0.000000
0.000000
0.000000
0.000000
0.000000
0.000000
0.000000
0.000000
0.000000
0.000000
0.000000
0.000000
0.000000
0.000000
0.000000
0.000000
0.000000
0.000000
0.000000
0.000000
0.000000
0.000000
0.000000
0.000000
0.000000
0.000000
0.000000
0.000000
0.000000
0.000000
0.000000
0.000000
0.000000
0.000000
0.000000
0.000000
0.000000
0.000000
0.000000
0.000000
0.000000
0.000000
0.000000
0.000000
0.000000
0.000000
0.000000
0.000000
0.000000
0.000000
0.000000
0.000000
0.000000
0.000000
0.000000
0.000000
0.000000
0.000000
0.000000
0.000000
0.000000
0.000000
0.000000
0.000000
0.000000
0.000000
0.000000
0.000000
0.000000
0.000000
0.000000
0.000000
0.000000
0.000000
0.000000
0.000000
0.000000

SCALARS sigma_xy FLOAT 1
LOOKUP_TABLE default
0.000000
0.000000
0.000000
0.000000
-0.000000
-0.000000
-0.000000
-0.000000
-0.000000
-0.000000
-0.000000
-0.000000
-0.000000
0.000000
-0.000000
-0.000000
0.000000
0.000000
0.000000
0.000000
0.000000
0.000000
0.000000
0.000000
0.000000
0.000000
0.000000
0.000000
0.000000
0.000000
0.000000
0.000000
-0.000000
-0.000000
-0.000000
-0.000000
-0.000000
-0.000000
-0.000000
-0.000000
0.000000
0.000000
0.000000
0.000000
0.000000
0.000000
0.000000
0.000000
-0.000000
-0.000000
-0.000000
-0.000000
-0.000000
-0.000000
-0.000000
-0.000000
-0.000000
-0.000000
-0.000000
-0.000000
-0.000000
-0.000000
-0.000000
-0.000000
0.000000
0.000000
0.000000
0.000000
0.000000
0.000000
0.000000
0.000000
0.000000
0.000000
0.000000
0.000000
-0.000000
-0.000000
-0.000000
-0.000000
-0.000000
-0.000000
-0.000000
-0.000000
0.000000
0.000000
0.000000
0.000000
0.000000
-0.000000
0.000000
-0.000000
-0.000000
-0.000000
-0.000000
-0.000000
-0.000000
0.000000
0.000000
0.000000
0.000000
0.000000
0.000000
0.000000
-0.000000
-0.000000
-0.000000
-0.000000
-0.000000
-0.000000
-0.000000
-0.000000
0.000000
0.000000
0.000000
0.000000
0.000000
0.000000
0.000000
0.000000
-0.000000
-0.000000
-0.000000
-0.000000
-0.000000
-0.000000
-0.000000
-0.000000
-0.000000
0.000000
-0.000000
0.000000
0.000000
-0.000000
0.000000
-0.000000
0.000000
0.000000
0.000000
0.000000
0.000000
0.000000
0.000000
0.000000
-0.000000
-0.000000
-0.000000
-0.000000
0.000000
0.000000
0.000000
0.000000
0.000000
0.000000
0.000000
0.000000
0.000000
0.000000
0.000000
0.000000
0.000000
-0.000000
0.000000
-0.000000
-0.000000
-0.000000
-0.000000
0.000000
-0.000000
0.000000
-0.000000
0.000000
-0.000000
0.000000
-0.000000
0.000000
-0.000000
-0.000000
-0.000000
-0.000000
-0.000000
0.000000
-0.000000
0.000000
0.000000
-0.000000
0.000000
-0.000000
0.000000
0.000000
0.000000
-0.000000
0.000000
-0.000000
0.000000
-0.000000
0.000000
-0.000000
0.000000
-0.000000
-0.000000
-0.000000
-0.000000
-0.000000
0.000000
0.000000
0.000000
0.000000
0.000000
0.000000
0.000000
0.000000
-0.000000
-0.000000
-0.000000
-0.000000
-0.000000
0.000000
-0.000000
0.000000
-0.000000
0.000000
-0.000000
0.000000
0.000000
0.000000
0.000000
0.000000
-0.000000
-0.000000
-0.000000
-0.000000
0.000000
-0.000000
0.000000
-0.000000
0.000000
0.000000
0.000000
0.000000
0.000000
0.000000
0.000000
0.000000
-0.000000
-0.000000
-0.000000
-0.000000
-0.000000
0.000000
-0.000000
0.000000
-0.000000
0.000000
-0.000000
0.000000

SCALARS sigma_yz FLOAT 1
LOOKUP_TABLE default
0.000000
0.000000
0.000000
0.000000
0.000000
0.000000
0.000000
0.000000
0.000000
0.000000
0.000000
0.000000
0.000000
0.000000
0.000000
0.000000
0.000000
0.000000
0.000000
0.000000
0.000000
0.000000
0.000000
0.000000
0.000000
0.000000
0.000000
0.000000
0.000000
0.000000
0.000000
0.000000
0.000000
0.000000
0.000000
0.000000
0.000000
0.000000
0.000000
0.000000
0.000000
0.000000
0.000000
0.000000
0.000000
0.000000
0.000000
0.000000
0.000000
0.000000
0.000000
0.000000
0.000000
0.000000
0.000000
0.000000
0.000000
0.000000
0.000000
0.000000
0.000000
0.000000
0.000000
0.000000
0.000000
0.000000
0.000000
0.000000
0.000000
0.000000
0.000000
0.000000
0.000000
0.000000
0.000000
0.000000
0.000000
0.000000
0.000000
0.000000
0.000000
0.000000
0.000000
0.000000
0.000000
0.000000
0.000000
0.000000
0.000000
0.000000
0.000000
0.000000
0.000000
0.000000
0.000000
0.000000
0.000000
0.000000
0.000000
0.000000
0.000000
0.000000
0.000000
0.000000
0.000000
0.000000
0.000000
0.000000
0.000000
0.000000
0.000000
0.000000
0.000000
0.000000
0.000000
0.000000
0.000000
0.000000
0.000000
0.000000
0.000000
0.000000
0.000000
0.000000
0.000000
0.000000
0.000000
0.000000
0.000000
0.000000
0.000000
0.000000
0.000000
0.000000
0.000000
0.000000
0.000000
0.000000
0.000000
0.000000
0.000000
0.000000
0.000000
0.000000
0.000000
0.000000
0.000000
0.000000
0.000000
0.000000
0.000000
0.000000
0.000000
0.000000
0.000000
0.000000
0.000000
0.000000
0.000000
0.000000
0.000000
0.000000
0.000000
0.000000
0.000000
0.000000
0.000000
0.000000
0.000000
0.000000
0.000000
0.000000
0.000000
0.000000
0.000000
0.000000
0.000000
0.000000
0.000000
0.000000
0.000000
0.000000
0.000000
0.000000
0.000000
0.000000
0.000000
0.000000
0.000000
0.000000
0.000000
0.000000
0.000000
0.000000
0.000000
0.000000
0.000000
0.000000
0.000000
0.000000
0.000000
0.000000
0.000000
0.000000
0.000000
0.000000
0.000000
0.000000
0.000000
0.000000
0.000000
0.000000
0.000000
0.000000
0.000000
0.000000
0.000000
0.000000
0.000000
0.000000
0.000000
0.000000
0.000000
0.000000
0.000000
0.000000
0.000000
0.000000
0.000000
0.000000
0.000000
0.000000
0.000000
0.000000
0.000000
0.000000
0.000000
0.000000
0.000000
0.000000
0.000000
0.000000
0.000000
0.000000
0.000000
0.000000
0.000000
0.000000
0.000000
0.000000
0.000000
0.000000
0.000000
0.000000
0.000000
0.000000

SCALARS sigma_zx FLOAT 1
LOOKUP_TABLE default
0.000000
0.000000
0.000000
0.000000
0.000000
0.000000
0.000000
0.000000
0.000000
0.000000
0.000000
0.000000
0.000000
0.000000
0.000000
0.000000
0.000000
0.000000
0.000000
0.000000
0.000000
0.000000
0.000000
0.000000
0.000000
0.000000
0.000000
0.000000
0.000000
0.000000
0.000000
0.000000
0.000000
0.000000
0.000000
0.000000
0.000000
0.000000
0.000000
0.000000
0.000000
0.000000
0.000000
0.000000
0.000000
0.000000
0.000000
0.000000
0.000000
0.000000
0.000000
0.000000
0.000000
0.000000
0.000000
0.000000
0.000000
0.000000
0.000000
0.000000
0.000000
0.000000
0.000000
0.000000
0.000000
0.000000
0.000000
0.000000
0.000000
0.000000
0.000000
0.000000
0.000000
0.000000
0.000000
0.000000
0.000000
0.000000
0.000000
0.000000
0.000000
0.000000
0.000000
0.000000
0.000000
0.000000
0.000000
0.000000
0.000000
0.000000
0.000000
0.000000
0.000000
0.000000
0.000000
0.000000
0.000000
0.000000
0.000000
0.000000
0.000000
0.000000
0.000000
0.000000
0.000000
0.000000
0.000000
0.000000
0.000000
0.000000
0.000000
0.000000
0.000000
0.000000
0.000000
0.000000
0.000000
0.000000
0.000000
0.000000
0.000000
0.000000
0.000000
0.000000
0.000000
0.000000
0.000000
0.000000
0.000000
0.000000
0.000000
0.000000
0.000000
0.000000
0.000000
0.000000
0.000000
0.000000
0.000000
0.000000
0.000000
0.000000
0.000000
0.000000
0.000000
0.000000
0.000000
0.000000
0.000000
0.000000
0.000000
0.000000
0.000000
0.000000
0.000000
0.000000
0.000000
0.000000
0.000000
0.000000
0.000000
0.000000
0.000000
0.000000
0.000000
0.000000
0.000000
0.000000
0.000000
0.000000
0.000000
0.000000
0.000000
0.000000
0.000000
0.000000
0.000000
0.000000
0.000000
0.000000
0.000000
0.000000
0.000000
0.000000
0.000000
0.000000
0.000000
0.000000
0.000000
0.000000
0.000000
0.000000
0.000000
0.000000
0.000000
0.000000
0.000000
0.000000
0.000000
0.000000
0.000000
0.000000
0.000000
0.000000
0.000000
0.000000
0.000000
0.000000
0.000000
0.000000
0.000000
0.000000
0.000000
0.000000
0.000000
0.000000
0.000000
0.000000
0.000000
0.000000
0.000000
0.000000
0.000000
0.000000
0.000000
0.000000
0.000000
0.000000
0.000000
0.000000
0.000000
0.000000
0.000000
0.000000
0.000000
0.000000
0.000000
0.000000
0.000000
0.000000
0.000000
0.000000
0.000000
0.000000
0.000000
0.000000
0.000000
0.000000
0.000000
0.000000
0.000000
0.000000
0.000000
0.000000
0.000000
0.000000

SCALARS u_x FLOAT 1
LOOKUP_TABLE default
0.000000
0.000000
0.000000
0.000000
0.000000
0.000000
0.000000
0.000000
0.000000
0.000000
0.000000
0.000000
0.000000
0.000000
0.000000
0.000000
0.000000
0.000000
0.000000
0.000000
0.000000
0.000000
0.000000
0.000000
0.000000
0.000000
0.000000
0.000000
0.000000
0.000000
0.000000
0.000000
0.000000
0.000000
0.000000
0.000000
0.000000
0.000000
0.000000
0.000000
0.000000
0.000000
0.000000
0.000000
0.000000
0.000000
0.000000
0.000000
0.000000
0.000000
0.000000
0.000000
0.000000
0.000000
0.000000
0.000000
0.000000
0.000000
0.000000
0.000000
0.000000
0.000000
0.000000
0.000000
0.000000
0.000000
0.000000
0.000000
0.000000
0.000000
0.000000
0.000000
0.000000
0.000000
0.000000
0.000000
0.000000
0.000000
0.000000
0.000000
0.000000
0.000000
0.000000
0.000000
0.000000
0.000000
0.000000
0.000000
0.000000
0.000000
0.000000
0.000000
0.000000
0.000000
0.000000
0.000000
0.000000
0.000000
0.000000
0.000000
0.000000
0.000000
0.000000
0.000000
0.000000
0.000000
0.000000
0.000000
0.000000
0.000000
0.000000
0.000000
0.000000
0.000000
0.000000
0.000000
0.000000
0.000000
0.000000
0.000000
0.000000
0.000000
0.000000
0.000000
0.000000
0.000000
0.000000
0.000000
0.000000
0.000000
0.000000
0.000000
0.000000
0.000000
0.000000
0.000000
0.000000
0.000000
0.000000
0.000000
0.000000
0.000000
0.000000
0.000000
0.000000
0.000000
0.000000
0.000000
0.000000
0.000000
0.000000
0.000000
0.000000
0.000000
0.000000
0.000000
0.000000
0.000000
0.000000
0.000000
0.000000
0.000000
0.000000
0.000000
0.000000
0.000000
0.000000
0.000000
0.000000
0.000000
0.000000
0.000000
0.000000
0.000000
0.000000
0.000000
0.000000
0.000000
0.000000
0.000000
0.000000
0.000000
0.000000
0.000000
0.000000
0.000000
0.000000
0.000000
0.000000
0.000000
0.000000
0.000000
0.000000
0.000000
0.000000
0.000000
0.000000
0.000000
0.000000
0.000000
0.000000
0.000000
0.000000
0.000000
0.000000
0.000000
0.000000
0.000000
0.000000
0.000000
0.000000
0.000000
0.000000
0.000000
0.000000
0.000000
0.000000
0.000000
0.000000
0.000000
0.000000
0.000000
0.000000
0.000000
0.000000
0.000000
0.000000
0.000000
0.000000
0.000000
0.000000
0.000000
0.000000
0.000000
0.000000
0.000000
0.000000
0.000000
0.000000
0.000000
0.000000
0.000000
0.000000
0.000000
0.000000
0.000000
0.000000
0.000000
0.000000
0.000000
0.000000
0.000000
0.000000
0.000000
0.000000
0.000000

SCALARS u_y FLOAT 1
LOOKUP_TABLE default
-0.134613
-0.403840
-0.134613
-0.403840
-0.672900
-0.941407
-0.672900
-0.941407
-1.209375
-1.476695
-1.209375
-1.476695
-1.743400
-2.009563
-1.743400
-2.009563
-2.275250
-2.540383
-2.275250
-2.540383
-2.804953
-3.068921
-2.804953
-3.068921
-3.332285
-3.595043
-3.332285
-3.595043
-3.857267
-4.118900
-3.857267
-4.118900
-4.379939
-4.640358
-4.379939
-4.640358
-4.900140
-5.159297
-4.900140
-5.159297
-5.417821
-5.675713
-5.417821
-5.675713
-5.932948
-6.189532
-5.932948
-6.189532
-6.445427
-6.700666
-6.445427
-6.700666
-6.955229
-7.209154
-6.955229
-7.209154
-7.462339
-7.714801
-7.462339
-7.714801
-7.966552
-8.217590
-7.966552
-8.217590
-8.467910
-8.717451
-8.467910
-8.717451
-8.966313
-9.214328
-8.966313
-9.214328
-9.461600
-9.708064
-9.461600
-9.708064
-9.953775
-10.198667
-9.953775
-10.198667
-10.442688
-10.685952
-10.442688
-10.685952
-10.928285
-11.169867
-10.928285
-11.169867
-11.410476
-11.650247
-11.410476
-11.650247
-11.889089
-12.127065
-11.889089
-12.127065
-12.364166
-12.600273
-12.364166
-12.600273
-12.835485
-13.069723
-12.835485
-13.069723
-13.302913
-13.535239
-13.302913
-13.535239
-13.766429
-13.996656
-13.766429
-13.996656
-14.225808
-14.453926
-14.225808
-14.453926
-14.680965
-14.906927
-14.680965
-14.906927
-15.131704
-15.355306
-15.131704
-15.355306
-15.577878
-15.799232
-15.577878
-15.799232
-16.019322
-16.238320
-16.019322
-16.238320
-16.455989
-16.672482
-16.455989
-16.672482
-16.887709
-17.101433
-16.887709
-17.101433
-17.313945
-17.525002
-17.313945
-17.525002
-17.734768
-17.943104
-17.734768
-17.943104
-18.150002
-18.355402
-18.150002
-18.355402
-18.559262
-18.761536
-18.559262
-18.761536
-18.962301
-19.161390
-18.962301
-19.161390
-19.358932
-19.554750
-19.358932
-19.554750
-19.748939
-19.941320
-19.748939
-19.941320
-20.131797
-20.320588
-20.131797
-20.320588
-20.507276
-20.692219
-20.507276
-20.692219
-20.875144
-21.056068
-20.875144
-21.056068
-21.234657
-21.411180
-21.234657
-21.411180
-21.585561
-21.757765
-21.585561
-21.757765
-21.927649
-22.095343
-21.927649
-22.095343
-22.260269
-22.422600
-22.260269
-22.422600
-22.582244
-22.739470
-22.582244
-22.739470
-22.893837
-23.045205
-22.893837
-23.045205
-23.193805
-23.339195
-23.193805
-23.339195
-23.481577
-23.620517
-23.481577
-23.620517
-23.756252
-23.888339
-23.756252
-23.888339
-24.016626
-24.141223
-24.016626
-24.141223
-24.261607
-24.378165
-24.261607
-24.378165
-24.490341
-24.598258
-24.490341
-24.598258
-24.701455
-24.799575
-24.701455
-24.799575
-24.892678
-24.979792
-24.892678
-24.979792
-25.061308
-25.136735
-25.061308
-25.136735
-25.206875
-25.269078
-25.206875
-25.269078
-25.323980
-25.371447
-25.323980
-25.371447
-25.412371
-25.440657
-25.412371
-25.440657
-25.463019
-25.483893
-25.463019
-25.483893

