# vtk DataFile Version 2.0
MATLAB generated vtk file, WMC
ASCII
DATASET UNSTRUCTURED_GRID
POINTS 256 double
0.195312 0.067557 0.000000 
0.195312 0.202672 0.000000 
0.585938 0.067557 0.000000 
0.585938 0.202672 0.000000 
0.195312 0.337973 0.000000 
0.195312 0.473888 0.000000 
0.585938 0.337973 0.000000 
0.585938 0.473888 0.000000 
0.195312 0.610404 0.000000 
0.195312 0.747640 0.000000 
0.585938 0.610404 0.000000 
0.585938 0.747640 0.000000 
0.195312 0.885486 0.000000 
0.195312 1.023846 0.000000 
0.585938 0.885486 0.000000 
0.585938 1.023846 0.000000 
0.195312 1.162733 0.000000 
0.195312 1.302236 0.000000 
0.585938 1.162733 0.000000 
0.585938 1.302236 0.000000 
0.195312 1.442364 0.000000 
0.195312 1.583149 0.000000 
0.585938 1.442364 0.000000 
0.585938 1.583149 0.000000 
0.195312 1.724503 0.000000 
0.195312 1.866458 0.000000 
0.585938 1.724503 0.000000 
0.585938 1.866458 0.000000 
0.195312 2.009003 0.000000 
0.195312 2.152204 0.000000 
0.585938 2.009003 0.000000 
0.585938 2.152204 0.000000 
0.195312 2.296064 0.000000 
0.195312 2.440592 0.000000 
0.585938 2.296064 0.000000 
0.585938 2.440592 0.000000 
0.195312 2.585741 0.000000 
0.195312 2.731531 0.000000 
0.585938 2.585741 0.000000 
0.585938 2.731531 0.000000 
0.195312 2.878021 0.000000 
0.195312 3.025211 0.000000 
0.585938 2.878021 0.000000 
0.585938 3.025211 0.000000 
0.195312 3.173112 0.000000 
0.195312 3.321645 0.000000 
0.585938 3.173112 0.000000 
0.585938 3.321645 0.000000 
0.195312 3.470866 0.000000 
0.195312 3.620786 0.000000 
0.585938 3.470866 0.000000 
0.585938 3.620786 0.000000 
0.195312 3.771454 0.000000 
0.195312 3.922825 0.000000 
0.585938 3.771454 0.000000 
0.585938 3.922825 0.000000 
0.195312 4.074972 0.000000 
0.195312 4.227844 0.000000 
0.585938 4.074972 0.000000 
0.585938 4.227844 0.000000 
0.195312 4.381436 0.000000 
0.195312 4.535811 0.000000 
0.585938 4.381436 0.000000 
0.585938 4.535811 0.000000 
0.195312 4.690972 0.000000 
0.195312 4.846933 0.000000 
0.585938 4.690972 0.000000 
0.585938 4.846933 0.000000 
0.195312 5.003569 0.000000 
0.195312 5.161086 0.000000 
0.585938 5.003569 0.000000 
0.585938 5.161086 0.000000 
0.195312 5.319389 0.000000 
0.195312 5.478577 0.000000 
0.585938 5.319389 0.000000 
0.585938 5.478577 0.000000 
0.195312 5.638544 0.000000 
0.195312 5.799347 0.000000 
0.585938 5.638544 0.000000 
0.585938 5.799347 0.000000 
0.195312 5.961048 0.000000 
0.195312 6.123515 0.000000 
0.585938 5.961048 0.000000 
0.585938 6.123515 0.000000 
0.195312 6.286987 0.000000 
0.195312 6.451242 0.000000 
0.585938 6.286987 0.000000 
0.585938 6.451242 0.000000 
0.195312 6.616512 0.000000 
0.195312 6.782624 0.000000 
0.585938 6.616512 0.000000 
0.585938 6.782624 0.000000 
0.195312 6.949708 0.000000 
0.195312 7.117738 0.000000 
0.585938 6.949708 0.000000 
0.585938 7.117738 0.000000 
0.195312 7.286669 0.000000 
0.195312 7.456650 0.000000 
0.585938 7.286669 0.000000 
0.585938 7.456650 0.000000 
0.195312 7.627561 0.000000 
0.195312 7.799492 0.000000 
0.585938 7.627561 0.000000 
0.585938 7.799492 0.000000 
0.195312 7.972472 0.000000 
0.195312 8.146354 0.000000 
0.585938 7.972472 0.000000 
0.585938 8.146354 0.000000 
0.195312 8.321385 0.000000 
0.195312 8.497415 0.000000 
0.585938 8.321385 0.000000 
0.585938 8.497415 0.000000 
0.195312 8.674577 0.000000 
0.195312 8.852801 0.000000 
0.585938 8.674577 0.000000 
0.585938 8.852801 0.000000 
0.195312 9.032118 0.000000 
0.195312 9.212608 0.000000 
0.585938 9.032118 0.000000 
0.585938 9.212608 0.000000 
0.195312 9.394284 0.000000 
0.195312 9.577141 0.000000 
0.585938 9.394284 0.000000 
0.585938 9.577141 0.000000 
0.195312 9.761100 0.000000 
0.195312 9.946291 0.000000 
0.585938 9.761100 0.000000 
0.585938 9.946291 0.000000 
0.195312 10.132792 0.000000 
0.195312 10.320415 0.000000 
0.585938 10.132792 0.000000 
0.585938 10.320415 0.000000 
0.195312 10.509408 0.000000 
0.195312 10.699616 0.000000 
0.585938 10.509408 0.000000 
0.585938 10.699616 0.000000 
0.195312 10.891117 0.000000 
0.195312 11.084089 0.000000 
0.585938 10.891117 0.000000 
0.585938 11.084089 0.000000 
0.195312 11.278248 0.000000 
0.195312 11.473954 0.000000 
0.585938 11.278248 0.000000 
0.585938 11.473954 0.000000 
0.195312 11.671041 0.000000 
0.195312 11.869591 0.000000 
0.585938 11.671041 0.000000 
0.585938 11.869591 0.000000 
0.195312 12.069542 0.000000 
0.195312 12.270960 0.000000 
0.585938 12.069542 0.000000 
0.585938 12.270960 0.000000 
0.195312 12.473915 0.000000 
0.195312 12.678455 0.000000 
0.585938 12.473915 0.000000 
0.585938 12.678455 0.000000 
0.195312 12.884524 0.000000 
0.195312 13.092419 0.000000 
0.585938 12.884524 0.000000 
0.585938 13.092419 0.000000 
0.195312 13.301962 0.000000 
0.195312 13.513251 0.000000 
0.585938 13.301962 0.000000 
0.585938 13.513251 0.000000 
0.195312 13.726063 0.000000 
0.195312 13.940602 0.000000 
0.585938 13.726063 0.000000 
0.585938 13.940602 0.000000 
0.195312 14.157029 0.000000 
0.195312 14.375101 0.000000 
0.585938 14.157029 0.000000 
0.585938 14.375101 0.000000 
0.195312 14.595399 0.000000 
0.195312 14.817568 0.000000 
0.585938 14.595399 0.000000 
0.585938 14.817568 0.000000 
0.195312 15.041759 0.000000 
0.195312 15.267806 0.000000 
0.585938 15.041759 0.000000 
0.585938 15.267806 0.000000 
0.195312 15.496030 0.000000 
0.195312 15.726277 0.000000 
0.585938 15.496030 0.000000 
0.585938 15.726277 0.000000 
0.195312 15.958683 0.000000 
0.195312 16.193393 0.000000 
0.585938 15.958683 0.000000 
0.585938 16.193393 0.000000 
0.195312 16.430528 0.000000 
0.195312 16.669684 0.000000 
0.585938 16.430528 0.000000 
0.585938 16.669684 0.000000 
0.195312 16.911561 0.000000 
0.195312 17.155843 0.000000 
0.585938 16.911561 0.000000 
0.585938 17.155843 0.000000 
0.195312 17.402862 0.000000 
0.195312 17.652204 0.000000 
0.585938 17.402862 0.000000 
0.585938 17.652204 0.000000 
0.195312 17.904360 0.000000 
0.195312 18.159406 0.000000 
0.585938 17.904360 0.000000 
0.585938 18.159406 0.000000 
0.195312 18.417048 0.000000 
0.195312 18.677844 0.000000 
0.585938 18.417048 0.000000 
0.585938 18.677844 0.000000 
0.195312 18.941505 0.000000 
0.195312 19.208589 0.000000 
0.585938 18.941505 0.000000 
0.585938 19.208589 0.000000 
0.195312 19.478716 0.000000 
0.195312 19.752272 0.000000 
0.585938 19.478716 0.000000 
0.585938 19.752272 0.000000 
0.195312 20.029349 0.000000 
0.195312 20.309784 0.000000 
0.585938 20.029349 0.000000 
0.585938 20.309784 0.000000 
0.195312 20.594298 0.000000 
0.195312 20.882677 0.000000 
0.585938 20.594298 0.000000 
0.585938 20.882677 0.000000 
0.195312 21.175430 0.000000 
0.195312 21.471905 0.000000 
0.585938 21.175430 0.000000 
0.585938 21.471905 0.000000 
0.195312 21.772456 0.000000 
0.195312 22.077579 0.000000 
0.585938 21.772456 0.000000 
0.585938 22.077579 0.000000 
0.195312 22.387723 0.000000 
0.195312 22.703284 0.000000 
0.585938 22.387723 0.000000 
0.585938 22.703284 0.000000 
0.195312 23.023395 0.000000 
0.195312 23.349400 0.000000 
0.585938 23.023395 0.000000 
0.585938 23.349400 0.000000 
0.195312 23.680469 0.000000 
0.195312 24.018099 0.000000 
0.585938 23.680469 0.000000 
0.585938 24.018099 0.000000 
0.195312 24.361401 0.000000 
0.195312 24.711998 0.000000 
0.585938 24.361401 0.000000 
0.585938 24.711998 0.000000 
0.195312 25.069188 0.000000 
0.195312 25.435042 0.000000 
0.585938 25.069188 0.000000 
0.585938 25.435042 0.000000 
0.195312 25.806288 0.000000 
0.195312 26.184906 0.000000 
0.585938 25.806288 0.000000 
0.585938 26.184906 0.000000 

POINT_DATA 256
SCALARS sigma_xx FLOAT 1
LOOKUP_TABLE default
0.000000
0.000000
0.000000
0.000000
0.000000
-0.000000
0.000000
-0.000000
-0.000000
-0.000000
-0.000000
-0.000000
-0.000000
0.000000
-0.000000
-0.000000
-0.000000
0.000000
-0.000000
0.000000
-0.000000
-0.000000
-0.000000
-0.000000
-0.000000
-0.000000
-0.000000
-0.000000
0.000000
-0.000000
0.000000
-0.000000
-0.000000
-0.000000
-0.000000
-0.000000
-0.000000
0.000000
-0.000000
0.000000
-0.000000
-0.000000
-0.000000
-0.000000
0.000000
-0.000000
0.000000
-0.000000
-0.000000
-0.000000
-0.000000
-0.000000
0.000000
-0.000000
0.000000
-0.000000
-0.000000
-0.000000
-0.000000
-0.000000
-0.000000
-0.000000
-0.000000
-0.000000
-0.000000
-0.000000
-0.000000
-0.000000
-0.000000
-0.000000
-0.000000
-0.000000
-0.000000
0.000000
-0.000000
-0.000000
-0.000000
-0.000000
-0.000000
-0.000000
-0.000000
-0.000000
-0.000000
-0.000000
-0.000000
-0.000000
-0.000000
-0.000000
-0.000000
-0.000000
-0.000000
-0.000000
-0.000000
0.000000
-0.000000
0.000000
-0.000000
-0.000000
-0.000000
-0.000000
-0.000000
-0.000000
-0.000000
-0.000000
-0.000000
-0.000000
-0.000000
-0.000000
-0.000000
-0.000000
-0.000000
-0.000000
-0.000000
-0.000000
-0.000000
-0.000000
-0.000000
-0.000000
-0.000000
-0.000000
-0.000000
-0.000000
-0.000000
-0.000000
-0.000000
-0.000000
-0.000000
-0.000000
-0.000000
-0.000000
-0.000000
-0.000000
-0.000000
-0.000000
-0.000000
-0.000000
-0.000000
-0.000000
-0.000000
-0.000000
-0.000000
-0.000000
-0.000000
-0.000000
-0.000000
-0.000000
-0.000000
-0.000000
-0.000000
-0.000000
-0.000000
-0.000000
-0.000000
-0.000000
-0.000000
-0.000000
0.000000
-0.000000
0.000000
-0.000000
-0.000000
-0.000000
-0.000000
-0.000000
-0.000000
0.000000
-0.000000
-0.000000
-0.000000
-0.000000
-0.000000
-0.000000
0.000000
-0.000000
-0.000000
-0.000000
0.000000
-0.000000
-0.000000
-0.000000
-0.000000
0.000000
-0.000000
0.000000
0.000000
-0.000000
0.000000
-0.000000
-0.000000
-0.000000
-0.000000
-0.000000
-0.000000
-0.000000
-0.000000
-0.000000
-0.000000
-0.000000
-0.000000
0.000000
-0.000000
-0.000000
0.000000
-0.000000
-0.000000
0.000000
-0.000000
0.000000
-0.000000
-0.000000
-0.000000
-0.000000
-0.000000
-0.000000
-0.000000
-0.000000
-0.000000
-0.000000
-0.000000
-0.000000
-0.000000
0.000000
-0.000000
-0.000000
-0.000000
0.000000
-0.000000
0.000000
-0.000000
-0.000000
-0.000000
-0.000000
0.000000
-0.000000
0.000000
-0.000000
-0.000000
-0.000000
-0.000000
-0.000000
0.000000
-0.000000
0.000000
-0.000000
-0.000000
0.000000
-0.000000
0.000000
-0.000000
-0.000000
0.000000
-0.000000
-0.000000
0.000000
-0.000000
0.000000

SCALARS sigma_yy FLOAT 1
LOOKUP_TABLE default
-30692.185878
-30692.185878
-30692.185878
-30692.185878
-30476.127746
-30226.537508
-30476.127746
-30226.537508
-29918.772439
-29643.302511
-29918.772439
-29643.302511
-29396.953923
-29206.925865
-29396.953923
-29206.925865
-28953.179499
-28713.615417
-28953.179499
-28713.615417
-28438.287520
-28208.422853
-28438.287520
-28208.422853
-27966.357251
-27748.239591
-27966.357251
-27748.239591
-27494.237936
-27255.429876
-27494.237936
-27255.429876
-26982.030134
-26767.736981
-26982.030134
-26767.736981
-26515.891984
-26296.776301
-26515.891984
-26296.776301
-26021.214307
-25781.704453
-26021.214307
-25781.704453
-25521.787242
-25329.160518
-25521.787242
-25329.160518
-25064.436050
-24839.314988
-25064.436050
-24839.314988
-24567.441765
-24343.645421
-24567.441765
-24343.645421
-24080.015699
-23868.936024
-24080.015699
-23868.936024
-23598.577999
-23377.698972
-23598.577999
-23377.698972
-23120.257940
-22887.100892
-23120.257940
-22887.100892
-22655.823544
-22416.045096
-22655.823544
-22416.045096
-22156.193394
-21911.735627
-22156.193394
-21911.735627
-21678.122823
-21446.139617
-21678.122823
-21446.139617
-21182.894270
-20966.794702
-21182.894270
-20966.794702
-20703.535167
-20476.985523
-20703.535167
-20476.985523
-20201.163959
-19995.916556
-20201.163959
-19995.916556
-19722.432018
-19501.051834
-19722.432018
-19501.051834
-19255.174060
-19006.492899
-19255.174060
-19006.492899
-18766.001795
-18524.234859
-18766.001795
-18524.234859
-18278.584973
-18059.482045
-18278.584973
-18059.482045
-17803.655575
-17568.961747
-17803.655575
-17568.961747
-17304.024772
-17089.915770
-17304.024772
-17089.915770
-16825.224540
-16588.746243
-16825.224540
-16588.746243
-16333.001924
-16110.045040
-16333.001924
-16110.045040
-15853.178309
-15634.098625
-15853.178309
-15634.098625
-15357.526816
-15155.729920
-15357.526816
-15155.729920
-14879.518145
-14662.596417
-14879.518145
-14662.596417
-14399.424270
-14182.113629
-14399.424270
-14182.113629
-13926.384442
-13682.787745
-13926.384442
-13682.787745
-13427.304562
-13199.851062
-13427.304562
-13199.851062
-12964.115641
-12733.783037
-12964.115641
-12733.783037
-12469.492566
-12242.153764
-12469.492566
-12242.153764
-11993.731173
-11718.960311
-11993.731173
-11718.960311
-11497.228884
-11248.614965
-11497.228884
-11248.614965
-11031.200330
-10782.645888
-11031.200330
-10782.645888
-10556.738142
-10295.216290
-10556.738142
-10295.216290
-10038.608866
-9796.575538
-10038.608866
-9796.575538
-9559.092793
-9325.778121
-9559.092793
-9325.778121
-9090.467457
-8842.810989
-9090.467457
-8842.810989
-8611.088501
-8345.711257
-8611.088501
-8345.711257
-8115.303307
-7884.707229
-8115.303307
-7884.707229
-7614.415928
-7388.932288
-7614.415928
-7388.932288
-7124.762816
-6919.757761
-7124.762816
-6919.757761
-6642.903028
-6426.955328
-6642.903028
-6426.955328
-6179.537296
-5939.360005
-6179.537296
-5939.360005
-5697.252108
-5443.634612
-5697.252108
-5443.634612
-5204.502360
-4968.780412
-5204.502360
-4968.780412
-4730.155757
-4488.592749
-4730.155757
-4488.592749
-4223.455353
-3983.293431
-4223.455353
-3983.293431
-3732.421257
-3530.994421
-3732.421257
-3530.994421
-3283.943413
-3043.311269
-3283.943413
-3043.311269
-2758.125022
-2546.305763
-2758.125022
-2546.305763
-2294.937326
-2065.641079
-2294.937326
-2065.641079
-1818.901493
-1580.837972
-1818.901493
-1580.837972
-1337.498820
-1088.571675
-1337.498820
-1088.571675
-848.898946
-604.172260
-848.898946
-604.172260
-419.439346
-37.366709
-419.439346
-37.366709

SCALARS sigma_zz FLOAT 1
LOOKUP_TABLE default
0.000000
0.000000
0.000000
0.000000
0.000000
0.000000
0.000000
0.000000
0.000000
0.000000
0.000000
0.000000
0.000000
0.000000
0.000000
0.000000
0.000000
0.000000
0.000000
0.000000
0.000000
0.000000
0.000000
0.000000
0.000000
0.000000
0.000000
0.000000
0.000000
0.000000
0.000000
0.000000
0.000000
0.000000
0.000000
0.000000
0.000000
0.000000
0.000000
0.000000
0.000000
0.000000
0.000000
0.000000
0.000000
0.000000
0.000000
0.000000
0.000000
0.000000
0.000000
0.000000
0.000000
0.000000
0.000000
0.000000
0.000000
0.000000
0.000000
0.000000
0.000000
0.000000
0.000000
0.000000
0.000000
0.000000
0.000000
0.000000
0.000000
0.000000
0.000000
0.000000
0.000000
0.000000
0.000000
0.000000
0.000000
0.000000
0.000000
0.000000
0.000000
0.000000
0.000000
0.000000
0.000000
0.000000
0.000000
0.000000
0.000000
0.000000
0.000000
0.000000
0.000000
0.000000
0.000000
0.000000
0.000000
0.000000
0.000000
0.000000
0.000000
0.000000
0.000000
0.000000
0.000000
0.000000
0.000000
0.000000
0.000000
0.000000
0.000000
0.000000
0.000000
0.000000
0.000000
0.000000
0.000000
0.000000
0.000000
0.000000
0.000000
0.000000
0.000000
0.000000
0.000000
0.000000
0.000000
0.000000
0.000000
0.000000
0.000000
0.000000
0.000000
0.000000
0.000000
0.000000
0.000000
0.000000
0.000000
0.000000
0.000000
0.000000
0.000000
0.000000
0.000000
0.000000
0.000000
0.000000
0.000000
0.000000
0.000000
0.000000
0.000000
0.000000
0.000000
0.000000
0.000000
0.000000
0.000000
0.000000
0.000000
0.000000
0.000000
0.000000
0.000000
0.000000
0.000000
0.000000
0.000000
0.000000
0.000000
0.000000
0.000000
0.000000
0.000000
0.000000
0.000000
0.000000
0.000000
0.000000
0.000000
0.000000
0.000000
0.000000
0.000000
0.000000
0.000000
0.000000
0.000000
0.000000
0.000000
0.000000
0.000000
0.000000
0.000000
0.000000
0.000000
0.000000
0.000000
0.000000
0.000000
0.000000
0.000000
0.000000
0.000000
0.000000
0.000000
0.000000
0.000000
0.000000
0.000000
0.000000
0.000000
0.000000
0.000000
0.000000
0.000000
0.000000
0.000000
0.000000
0.000000
0.000000
0.000000
0.000000
0.000000
0.000000
0.000000
0.000000
0.000000
0.000000
0.000000
0.000000
0.000000
0.000000
0.000000
0.000000
0.000000
0.000000
0.000000
0.000000
0.000000
0.000000
0.000000
0.000000
0.000000
0.000000
0.000000
0.000000
0.000000
0.000000
0.000000
0.000000
0.000000
0.000000
0.000000
0.000000

SCALARS sigma_xy FLOAT 1
LOOKUP_TABLE default
0.000000
0.000000
0.000000
0.000000
0.000000
-0.000000
0.000000
-0.000000
-0.000000
-0.000000
-0.000000
-0.000000
-0.000000
0.000000
-0.000000
-0.000000
0.000000
0.000000
0.000000
0.000000
-0.000000
-0.000000
-0.000000
-0.000000
-0.000000
-0.000000
-0.000000
-0.000000
0.000000
0.000000
0.000000
0.000000
0.000000
0.000000
0.000000
0.000000
0.000000
0.000000
0.000000
0.000000
0.000000
0.000000
0.000000
0.000000
0.000000
-0.000000
0.000000
-0.000000
-0.000000
-0.000000
-0.000000
-0.000000
0.000000
0.000000
0.000000
0.000000
0.000000
0.000000
0.000000
0.000000
0.000000
0.000000
0.000000
0.000000
0.000000
-0.000000
0.000000
-0.000000
-0.000000
-0.000000
-0.000000
-0.000000
-0.000000
0.000000
-0.000000
-0.000000
-0.000000
-0.000000
-0.000000
-0.000000
0.000000
0.000000
0.000000
0.000000
0.000000
0.000000
0.000000
0.000000
0.000000
-0.000000
0.000000
-0.000000
-0.000000
0.000000
-0.000000
0.000000
0.000000
0.000000
0.000000
0.000000
0.000000
0.000000
0.000000
0.000000
-0.000000
-0.000000
-0.000000
-0.000000
-0.000000
-0.000000
-0.000000
-0.000000
0.000000
0.000000
0.000000
0.000000
0.000000
0.000000
0.000000
0.000000
-0.000000
-0.000000
-0.000000
-0.000000
-0.000000
-0.000000
-0.000000
-0.000000
0.000000
0.000000
0.000000
0.000000
0.000000
-0.000000
0.000000
-0.000000
-0.000000
-0.000000
-0.000000
-0.000000
-0.000000
0.000000
-0.000000
0.000000
0.000000
0.000000
0.000000
0.000000
0.000000
-0.000000
0.000000
-0.000000
-0.000000
-0.000000
-0.000000
-0.000000
0.000000
0.000000
0.000000
0.000000
-0.000000
-0.000000
-0.000000
-0.000000
-0.000000
0.000000
-0.000000
0.000000
0.000000
0.000000
0.000000
0.000000
0.000000
0.000000
0.000000
0.000000
0.000000
-0.000000
-0.000000
-0.000000
-0.000000
0.000000
-0.000000
0.000000
0.000000
-0.000000
0.000000
-0.000000
0.000000
0.000000
0.000000
0.000000
0.000000
-0.000000
0.000000
-0.000000
0.000000
-0.000000
0.000000
0.000000
-0.000000
-0.000000
0.000000
-0.000000
-0.000000
0.000000
-0.000000
0.000000
0.000000
0.000000
0.000000
0.000000
0.000000
-0.000000
0.000000
0.000000
-0.000000
0.000000
-0.000000
0.000000
-0.000000
0.000000
-0.000000
0.000000
0.000000
0.000000
0.000000
0.000000
-0.000000
-0.000000
-0.000000
-0.000000
0.000000
-0.000000
0.000000
-0.000000
0.000000
0.000000
0.000000
0.000000
0.000000
0.000000
0.000000
0.000000
-0.000000
0.000000
-0.000000
0.000000
0.000000
-0.000000
0.000000
-0.000000
-0.000000
0.000000
-0.000000
0.000000

SCALARS sigma_yz FLOAT 1
LOOKUP_TABLE default
0.000000
0.000000
0.000000
0.000000
0.000000
0.000000
0.000000
0.000000
0.000000
0.000000
0.000000
0.000000
0.000000
0.000000
0.000000
0.000000
0.000000
0.000000
0.000000
0.000000
0.000000
0.000000
0.000000
0.000000
0.000000
0.000000
0.000000
0.000000
0.000000
0.000000
0.000000
0.000000
0.000000
0.000000
0.000000
0.000000
0.000000
0.000000
0.000000
0.000000
0.000000
0.000000
0.000000
0.000000
0.000000
0.000000
0.000000
0.000000
0.000000
0.000000
0.000000
0.000000
0.000000
0.000000
0.000000
0.000000
0.000000
0.000000
0.000000
0.000000
0.000000
0.000000
0.000000
0.000000
0.000000
0.000000
0.000000
0.000000
0.000000
0.000000
0.000000
0.000000
0.000000
0.000000
0.000000
0.000000
0.000000
0.000000
0.000000
0.000000
0.000000
0.000000
0.000000
0.000000
0.000000
0.000000
0.000000
0.000000
0.000000
0.000000
0.000000
0.000000
0.000000
0.000000
0.000000
0.000000
0.000000
0.000000
0.000000
0.000000
0.000000
0.000000
0.000000
0.000000
0.000000
0.000000
0.000000
0.000000
0.000000
0.000000
0.000000
0.000000
0.000000
0.000000
0.000000
0.000000
0.000000
0.000000
0.000000
0.000000
0.000000
0.000000
0.000000
0.000000
0.000000
0.000000
0.000000
0.000000
0.000000
0.000000
0.000000
0.000000
0.000000
0.000000
0.000000
0.000000
0.000000
0.000000
0.000000
0.000000
0.000000
0.000000
0.000000
0.000000
0.000000
0.000000
0.000000
0.000000
0.000000
0.000000
0.000000
0.000000
0.000000
0.000000
0.000000
0.000000
0.000000
0.000000
0.000000
0.000000
0.000000
0.000000
0.000000
0.000000
0.000000
0.000000
0.000000
0.000000
0.000000
0.000000
0.000000
0.000000
0.000000
0.000000
0.000000
0.000000
0.000000
0.000000
0.000000
0.000000
0.000000
0.000000
0.000000
0.000000
0.000000
0.000000
0.000000
0.000000
0.000000
0.000000
0.000000
0.000000
0.000000
0.000000
0.000000
0.000000
0.000000
0.000000
0.000000
0.000000
0.000000
0.000000
0.000000
0.000000
0.000000
0.000000
0.000000
0.000000
0.000000
0.000000
0.000000
0.000000
0.000000
0.000000
0.000000
0.000000
0.000000
0.000000
0.000000
0.000000
0.000000
0.000000
0.000000
0.000000
0.000000
0.000000
0.000000
0.000000
0.000000
0.000000
0.000000
0.000000
0.000000
0.000000
0.000000
0.000000
0.000000
0.000000
0.000000
0.000000
0.000000
0.000000
0.000000
0.000000
0.000000
0.000000
0.000000
0.000000
0.000000
0.000000
0.000000
0.000000
0.000000
0.000000
0.000000
0.000000

SCALARS sigma_zx FLOAT 1
LOOKUP_TABLE default
0.000000
0.000000
0.000000
0.000000
0.000000
0.000000
0.000000
0.000000
0.000000
0.000000
0.000000
0.000000
0.000000
0.000000
0.000000
0.000000
0.000000
0.000000
0.000000
0.000000
0.000000
0.000000
0.000000
0.000000
0.000000
0.000000
0.000000
0.000000
0.000000
0.000000
0.000000
0.000000
0.000000
0.000000
0.000000
0.000000
0.000000
0.000000
0.000000
0.000000
0.000000
0.000000
0.000000
0.000000
0.000000
0.000000
0.000000
0.000000
0.000000
0.000000
0.000000
0.000000
0.000000
0.000000
0.000000
0.000000
0.000000
0.000000
0.000000
0.000000
0.000000
0.000000
0.000000
0.000000
0.000000
0.000000
0.000000
0.000000
0.000000
0.000000
0.000000
0.000000
0.000000
0.000000
0.000000
0.000000
0.000000
0.000000
0.000000
0.000000
0.000000
0.000000
0.000000
0.000000
0.000000
0.000000
0.000000
0.000000
0.000000
0.000000
0.000000
0.000000
0.000000
0.000000
0.000000
0.000000
0.000000
0.000000
0.000000
0.000000
0.000000
0.000000
0.000000
0.000000
0.000000
0.000000
0.000000
0.000000
0.000000
0.000000
0.000000
0.000000
0.000000
0.000000
0.000000
0.000000
0.000000
0.000000
0.000000
0.000000
0.000000
0.000000
0.000000
0.000000
0.000000
0.000000
0.000000
0.000000
0.000000
0.000000
0.000000
0.000000
0.000000
0.000000
0.000000
0.000000
0.000000
0.000000
0.000000
0.000000
0.000000
0.000000
0.000000
0.000000
0.000000
0.000000
0.000000
0.000000
0.000000
0.000000
0.000000
0.000000
0.000000
0.000000
0.000000
0.000000
0.000000
0.000000
0.000000
0.000000
0.000000
0.000000
0.000000
0.000000
0.000000
0.000000
0.000000
0.000000
0.000000
0.000000
0.000000
0.000000
0.000000
0.000000
0.000000
0.000000
0.000000
0.000000
0.000000
0.000000
0.000000
0.000000
0.000000
0.000000
0.000000
0.000000
0.000000
0.000000
0.000000
0.000000
0.000000
0.000000
0.000000
0.000000
0.000000
0.000000
0.000000
0.000000
0.000000
0.000000
0.000000
0.000000
0.000000
0.000000
0.000000
0.000000
0.000000
0.000000
0.000000
0.000000
0.000000
0.000000
0.000000
0.000000
0.000000
0.000000
0.000000
0.000000
0.000000
0.000000
0.000000
0.000000
0.000000
0.000000
0.000000
0.000000
0.000000
0.000000
0.000000
0.000000
0.000000
0.000000
0.000000
0.000000
0.000000
0.000000
0.000000
0.000000
0.000000
0.000000
0.000000
0.000000
0.000000
0.000000
0.000000
0.000000
0.000000
0.000000
0.000000
0.000000
0.000000
0.000000
0.000000
0.000000
0.000000
0.000000

SCALARS u_x FLOAT 1
LOOKUP_TABLE default
0.000000
0.000000
0.000000
0.000000
0.000000
0.000000
0.000000
0.000000
0.000000
0.000000
0.000000
0.000000
0.000000
0.000000
0.000000
0.000000
0.000000
0.000000
0.000000
0.000000
0.000000
0.000000
0.000000
0.000000
0.000000
0.000000
0.000000
0.000000
0.000000
0.000000
0.000000
0.000000
0.000000
0.000000
0.000000
0.000000
0.000000
0.000000
0.000000
0.000000
0.000000
0.000000
0.000000
0.000000
0.000000
0.000000
0.000000
0.000000
0.000000
0.000000
0.000000
0.000000
0.000000
0.000000
0.000000
0.000000
0.000000
0.000000
0.000000
0.000000
0.000000
0.000000
0.000000
0.000000
0.000000
0.000000
0.000000
0.000000
0.000000
0.000000
0.000000
0.000000
0.000000
0.000000
0.000000
0.000000
0.000000
0.000000
0.000000
0.000000
0.000000
0.000000
0.000000
0.000000
0.000000
0.000000
0.000000
0.000000
0.000000
0.000000
0.000000
0.000000
0.000000
0.000000
0.000000
0.000000
0.000000
0.000000
0.000000
0.000000
0.000000
0.000000
0.000000
0.000000
0.000000
0.000000
0.000000
0.000000
0.000000
0.000000
0.000000
0.000000
0.000000
0.000000
0.000000
0.000000
0.000000
0.000000
0.000000
0.000000
0.000000
0.000000
0.000000
0.000000
0.000000
0.000000
0.000000
0.000000
0.000000
0.000000
0.000000
0.000000
0.000000
0.000000
0.000000
0.000000
0.000000
0.000000
0.000000
0.000000
0.000000
0.000000
0.000000
0.000000
0.000000
0.000000
0.000000
0.000000
0.000000
0.000000
0.000000
0.000000
0.000000
0.000000
0.000000
0.000000
0.000000
0.000000
0.000000
0.000000
0.000000
0.000000
0.000000
0.000000
0.000000
0.000000
0.000000
0.000000
0.000000
0.000000
0.000000
0.000000
0.000000
0.000000
0.000000
0.000000
0.000000
0.000000
0.000000
0.000000
0.000000
0.000000
0.000000
0.000000
0.000000
0.000000
0.000000
0.000000
0.000000
0.000000
0.000000
0.000000
0.000000
0.000000
0.000000
0.000000
0.000000
0.000000
0.000000
0.000000
0.000000
0.000000
0.000000
0.000000
0.000000
0.000000
0.000000
0.000000
0.000000
0.000000
0.000000
0.000000
0.000000
0.000000
0.000000
0.000000
0.000000
0.000000
0.000000
0.000000
0.000000
0.000000
0.000000
0.000000
0.000000
0.000000
0.000000
0.000000
0.000000
0.000000
0.000000
0.000000
0.000000
0.000000
0.000000
0.000000
0.000000
0.000000
0.000000
0.000000
0.000000
0.000000
0.000000
0.000000
0.000000
0.000000
0.000000
0.000000
0.000000
0.000000
0.000000
0.000000
0.000000
0.000000
0.000000
0.000000

SCALARS u_y FLOAT 1
LOOKUP_TABLE default
-0.127755
-0.383265
-0.127755
-0.383265
-0.638589
-0.893300
-0.638589
-0.893300
-1.147409
-1.400798
-1.147409
-1.400798
-1.653577
-1.905842
-1.653577
-1.905842
-2.157580
-2.408702
-2.157580
-2.408702
-2.659198
-2.909039
-2.659198
-2.909039
-3.158309
-3.406979
-3.158309
-3.406979
-3.655059
-3.902483
-3.655059
-3.902483
-4.149248
-4.395346
-4.149248
-4.395346
-4.640822
-4.885656
-4.640822
-4.885656
-5.129792
-5.373227
-5.129792
-5.373227
-5.615950
-5.858042
-5.615950
-5.858042
-6.099446
-6.340152
-6.099446
-6.340152
-6.580108
-6.819363
-6.580108
-6.819363
-7.057841
-7.295594
-7.057841
-7.295594
-7.532626
-7.768877
-7.532626
-7.768877
-8.004340
-8.239005
-8.004340
-8.239005
-8.472993
-8.706102
-8.472993
-8.706102
-8.938423
-9.169861
-8.938423
-9.169861
-9.400518
-9.630341
-9.400518
-9.630341
-9.859264
-10.087422
-9.859264
-10.087422
-10.314576
-10.540946
-10.314576
-10.540946
-10.766300
-10.990813
-10.766300
-10.990813
-11.214355
-11.436949
-11.214355
-11.436949
-11.658644
-11.879288
-11.658644
-11.879288
-12.099001
-12.317695
-12.099001
-12.317695
-12.535341
-12.752083
-12.535341
-12.752083
-12.967677
-13.182273
-12.967677
-13.182273
-13.395735
-13.608136
-13.395735
-13.608136
-13.819444
-14.029579
-13.819444
-14.029579
-14.238529
-14.446296
-14.238529
-14.446296
-14.652963
-14.858397
-14.652963
-14.858397
-15.062521
-15.265522
-15.062521
-15.265522
-15.467154
-15.667572
-15.467154
-15.667572
-15.866696
-16.064348
-15.866696
-16.064348
-16.260814
-16.455734
-16.260814
-16.455734
-16.649271
-16.841347
-16.649271
-16.841347
-17.032021
-17.221228
-17.032021
-17.221228
-17.408898
-17.594983
-17.408898
-17.594983
-17.779539
-17.962269
-17.779539
-17.962269
-18.143350
-18.322686
-18.143350
-18.322686
-18.500500
-18.676586
-18.500500
-18.676586
-18.850784
-19.023336
-18.850784
-19.023336
-19.193664
-19.362120
-19.193664
-19.362120
-19.528553
-19.693131
-19.528553
-19.693131
-19.855533
-20.015911
-19.855533
-20.015911
-20.174129
-20.330044
-20.174129
-20.330044
-20.483534
-20.635004
-20.483534
-20.635004
-20.783751
-20.930095
-20.783751
-20.930095
-21.073701
-21.214984
-21.073701
-21.214984
-21.353452
-21.489031
-21.353452
-21.489031
-21.622014
-21.751844
-21.622014
-21.751844
-21.878807
-22.002348
-21.878807
-22.002348
-22.122846
-22.239915
-22.122846
-22.239915
-22.353463
-22.463653
-22.353463
-22.463653
-22.569765
-22.672010
-22.569765
-22.672010
-22.769882
-22.864032
-22.769882
-22.864032
-22.954106
-23.039608
-22.954106
-23.039608
-23.120090
-23.195154
-23.120090
-23.195154
-23.265668
-23.330288
-23.265668
-23.330288
-23.389844
-23.442839
-23.389844
-23.442839
-23.490161
-23.530189
-23.490161
-23.530189
-23.563625
-23.588395
-23.563625
-23.588395
-23.607775
-23.619782
-23.607775
-23.619782

