# vtk DataFile Version 2.0
MATLAB generated vtk file, WMC
ASCII
DATASET UNSTRUCTURED_GRID
POINTS 256 double
0.195312 0.062482 0.000000 
0.195312 0.187445 0.000000 
0.585938 0.062482 0.000000 
0.585938 0.187445 0.000000 
0.195312 0.312581 0.000000 
0.195312 0.438285 0.000000 
0.585938 0.312581 0.000000 
0.585938 0.438285 0.000000 
0.195312 0.564545 0.000000 
0.195312 0.691471 0.000000 
0.585938 0.564545 0.000000 
0.585938 0.691471 0.000000 
0.195312 0.819018 0.000000 
0.195312 0.947091 0.000000 
0.585938 0.819018 0.000000 
0.585938 0.947091 0.000000 
0.195312 1.075653 0.000000 
0.195312 1.204785 0.000000 
0.585938 1.075653 0.000000 
0.585938 1.204785 0.000000 
0.195312 1.334496 0.000000 
0.195312 1.464827 0.000000 
0.585938 1.334496 0.000000 
0.585938 1.464827 0.000000 
0.195312 1.595767 0.000000 
0.195312 1.727293 0.000000 
0.585938 1.595767 0.000000 
0.585938 1.727293 0.000000 
0.195312 1.859366 0.000000 
0.195312 1.992046 0.000000 
0.585938 1.859366 0.000000 
0.585938 1.992046 0.000000 
0.195312 2.125337 0.000000 
0.195312 2.259267 0.000000 
0.585938 2.125337 0.000000 
0.585938 2.259267 0.000000 
0.195312 2.393835 0.000000 
0.195312 2.529007 0.000000 
0.585938 2.393835 0.000000 
0.585938 2.529007 0.000000 
0.195312 2.664826 0.000000 
0.195312 2.801296 0.000000 
0.585938 2.664826 0.000000 
0.585938 2.801296 0.000000 
0.195312 2.938442 0.000000 
0.195312 3.076256 0.000000 
0.585938 2.938442 0.000000 
0.585938 3.076256 0.000000 
0.195312 3.214776 0.000000 
0.195312 3.353953 0.000000 
0.585938 3.214776 0.000000 
0.585938 3.353953 0.000000 
0.195312 3.493825 0.000000 
0.195312 3.634353 0.000000 
0.585938 3.493825 0.000000 
0.585938 3.634353 0.000000 
0.195312 3.775642 0.000000 
0.195312 3.917660 0.000000 
0.585938 3.775642 0.000000 
0.585938 3.917660 0.000000 
0.195312 4.060356 0.000000 
0.195312 4.203778 0.000000 
0.585938 4.060356 0.000000 
0.585938 4.203778 0.000000 
0.195312 4.347938 0.000000 
0.195312 4.492899 0.000000 
0.585938 4.347938 0.000000 
0.585938 4.492899 0.000000 
0.195312 4.638557 0.000000 
0.195312 4.785071 0.000000 
0.585938 4.638557 0.000000 
0.585938 4.785071 0.000000 
0.195312 4.932321 0.000000 
0.195312 5.080400 0.000000 
0.585938 4.932321 0.000000 
0.585938 5.080400 0.000000 
0.195312 5.229252 0.000000 
0.195312 5.378945 0.000000 
0.585938 5.229252 0.000000 
0.585938 5.378945 0.000000 
0.195312 5.529519 0.000000 
0.195312 5.680810 0.000000 
0.585938 5.529519 0.000000 
0.585938 5.680810 0.000000 
0.195312 5.833046 0.000000 
0.195312 5.986052 0.000000 
0.585938 5.833046 0.000000 
0.585938 5.986052 0.000000 
0.195312 6.140058 0.000000 
0.195312 6.294908 0.000000 
0.585938 6.140058 0.000000 
0.585938 6.294908 0.000000 
0.195312 6.450674 0.000000 
0.195312 6.607326 0.000000 
0.585938 6.450674 0.000000 
0.585938 6.607326 0.000000 
0.195312 6.764876 0.000000 
0.195312 6.923447 0.000000 
0.585938 6.764876 0.000000 
0.585938 6.923447 0.000000 
0.195312 7.082924 0.000000 
0.195312 7.243370 0.000000 
0.585938 7.082924 0.000000 
0.585938 7.243370 0.000000 
0.195312 7.404883 0.000000 
0.195312 7.567284 0.000000 
0.585938 7.404883 0.000000 
0.585938 7.567284 0.000000 
0.195312 7.730850 0.000000 
0.195312 7.895401 0.000000 
0.585938 7.730850 0.000000 
0.585938 7.895401 0.000000 
0.195312 8.060998 0.000000 
0.195312 8.227639 0.000000 
0.585938 8.060998 0.000000 
0.585938 8.227639 0.000000 
0.195312 8.395386 0.000000 
0.195312 8.564230 0.000000 
0.585938 8.395386 0.000000 
0.585938 8.564230 0.000000 
0.195312 8.734197 0.000000 
0.195312 8.905321 0.000000 
0.585938 8.734197 0.000000 
0.585938 8.905321 0.000000 
0.195312 9.077497 0.000000 
0.195312 9.250922 0.000000 
0.585938 9.077497 0.000000 
0.585938 9.250922 0.000000 
0.195312 9.425651 0.000000 
0.195312 9.601511 0.000000 
0.585938 9.425651 0.000000 
0.585938 9.601511 0.000000 
0.195312 9.778724 0.000000 
0.195312 9.957142 0.000000 
0.585938 9.778724 0.000000 
0.585938 9.957142 0.000000 
0.195312 10.136850 0.000000 
0.195312 10.317999 0.000000 
0.585938 10.136850 0.000000 
0.585938 10.317999 0.000000 
0.195312 10.500316 0.000000 
0.195312 10.684118 0.000000 
0.585938 10.500316 0.000000 
0.585938 10.684118 0.000000 
0.195312 10.869241 0.000000 
0.195312 11.055802 0.000000 
0.585938 10.869241 0.000000 
0.585938 11.055802 0.000000 
0.195312 11.243801 0.000000 
0.195312 11.433328 0.000000 
0.585938 11.243801 0.000000 
0.585938 11.433328 0.000000 
0.195312 11.624430 0.000000 
0.195312 11.817102 0.000000 
0.585938 11.624430 0.000000 
0.585938 11.817102 0.000000 
0.195312 12.011197 0.000000 
0.195312 12.206972 0.000000 
0.585938 12.011197 0.000000 
0.585938 12.206972 0.000000 
0.195312 12.404328 0.000000 
0.195312 12.603494 0.000000 
0.585938 12.404328 0.000000 
0.585938 12.603494 0.000000 
0.195312 12.804331 0.000000 
0.195312 13.006996 0.000000 
0.585938 12.804331 0.000000 
0.585938 13.006996 0.000000 
0.195312 13.211603 0.000000 
0.195312 13.417762 0.000000 
0.585938 13.211603 0.000000 
0.585938 13.417762 0.000000 
0.195312 13.625917 0.000000 
0.195312 13.835835 0.000000 
0.585938 13.625917 0.000000 
0.585938 13.835835 0.000000 
0.195312 14.047814 0.000000 
0.195312 14.261831 0.000000 
0.585938 14.047814 0.000000 
0.585938 14.261831 0.000000 
0.195312 14.478157 0.000000 
0.195312 14.696583 0.000000 
0.585938 14.478157 0.000000 
0.585938 14.696583 0.000000 
0.195312 14.917160 0.000000 
0.195312 15.139929 0.000000 
0.585938 14.917160 0.000000 
0.585938 15.139929 0.000000 
0.195312 15.365101 0.000000 
0.195312 15.592498 0.000000 
0.585938 15.365101 0.000000 
0.585938 15.592498 0.000000 
0.195312 15.822598 0.000000 
0.195312 16.055107 0.000000 
0.585938 15.822598 0.000000 
0.585938 16.055107 0.000000 
0.195312 16.290317 0.000000 
0.195312 16.527917 0.000000 
0.585938 16.290317 0.000000 
0.585938 16.527917 0.000000 
0.195312 16.768310 0.000000 
0.195312 17.011727 0.000000 
0.585938 16.768310 0.000000 
0.585938 17.011727 0.000000 
0.195312 17.257956 0.000000 
0.195312 17.507411 0.000000 
0.585938 17.257956 0.000000 
0.585938 17.507411 0.000000 
0.195312 17.759879 0.000000 
0.195312 18.015797 0.000000 
0.585938 17.759879 0.000000 
0.585938 18.015797 0.000000 
0.195312 18.274762 0.000000 
0.195312 18.537336 0.000000 
0.585938 18.274762 0.000000 
0.585938 18.537336 0.000000 
0.195312 18.803720 0.000000 
0.195312 19.073617 0.000000 
0.585938 18.803720 0.000000 
0.585938 19.073617 0.000000 
0.195312 19.347621 0.000000 
0.195312 19.625496 0.000000 
0.585938 19.347621 0.000000 
0.585938 19.625496 0.000000 
0.195312 19.907927 0.000000 
0.195312 20.194788 0.000000 
0.585938 19.907927 0.000000 
0.585938 20.194788 0.000000 
0.195312 20.486158 0.000000 
0.195312 20.781940 0.000000 
0.585938 20.486158 0.000000 
0.585938 20.781940 0.000000 
0.195312 21.082587 0.000000 
0.195312 21.389202 0.000000 
0.585938 21.082587 0.000000 
0.585938 21.389202 0.000000 
0.195312 21.701471 0.000000 
0.195312 22.019828 0.000000 
0.585938 21.701471 0.000000 
0.585938 22.019828 0.000000 
0.195312 22.343249 0.000000 
0.195312 22.674457 0.000000 
0.585938 22.343249 0.000000 
0.585938 22.674457 0.000000 
0.195312 23.012277 0.000000 
0.195312 23.357202 0.000000 
0.585938 23.012277 0.000000 
0.585938 23.357202 0.000000 
0.195312 23.708869 0.000000 
0.195312 24.072499 0.000000 
0.585938 23.708869 0.000000 
0.585938 24.072499 0.000000 
0.195312 24.442518 0.000000 
0.195312 24.815730 0.000000 
0.585938 24.442518 0.000000 
0.585938 24.815730 0.000000 

POINT_DATA 256
SCALARS sigma_xx FLOAT 1
LOOKUP_TABLE default
0.000000
-0.000000
0.000000
-0.000000
-0.000000
-0.000000
-0.000000
-0.000000
-0.000000
-0.000000
-0.000000
-0.000000
-0.000000
-0.000000
-0.000000
-0.000000
-0.000000
-0.000000
-0.000000
-0.000000
-0.000000
-0.000000
-0.000000
-0.000000
-0.000000
-0.000000
-0.000000
-0.000000
0.000000
0.000000
0.000000
0.000000
-0.000000
-0.000000
-0.000000
-0.000000
-0.000000
-0.000000
-0.000000
-0.000000
-0.000000
-0.000000
-0.000000
-0.000000
-0.000000
-0.000000
-0.000000
-0.000000
-0.000000
-0.000000
-0.000000
-0.000000
-0.000000
-0.000000
-0.000000
-0.000000
-0.000000
-0.000000
-0.000000
-0.000000
-0.000000
0.000000
-0.000000
0.000000
-0.000000
-0.000000
-0.000000
-0.000000
-0.000000
-0.000000
-0.000000
-0.000000
-0.000000
-0.000000
-0.000000
-0.000000
-0.000000
-0.000000
-0.000000
-0.000000
-0.000000
-0.000000
-0.000000
-0.000000
-0.000000
-0.000000
-0.000000
-0.000000
0.000000
-0.000000
-0.000000
-0.000000
-0.000000
-0.000000
-0.000000
-0.000000
-0.000000
-0.000000
-0.000000
-0.000000
-0.000000
-0.000000
-0.000000
-0.000000
0.000000
-0.000000
-0.000000
-0.000000
-0.000000
-0.000000
-0.000000
-0.000000
-0.000000
-0.000000
-0.000000
-0.000000
-0.000000
-0.000000
-0.000000
-0.000000
-0.000000
-0.000000
-0.000000
-0.000000
-0.000000
-0.000000
-0.000000
-0.000000
-0.000000
-0.000000
-0.000000
-0.000000
-0.000000
-0.000000
-0.000000
-0.000000
-0.000000
-0.000000
-0.000000
-0.000000
-0.000000
-0.000000
-0.000000
-0.000000
-0.000000
-0.000000
-0.000000
-0.000000
-0.000000
-0.000000
-0.000000
0.000000
-0.000000
-0.000000
-0.000000
-0.000000
-0.000000
-0.000000
-0.000000
-0.000000
-0.000000
-0.000000
-0.000000
-0.000000
-0.000000
-0.000000
-0.000000
-0.000000
-0.000000
-0.000000
-0.000000
-0.000000
-0.000000
-0.000000
-0.000000
-0.000000
-0.000000
-0.000000
-0.000000
-0.000000
-0.000000
-0.000000
-0.000000
-0.000000
-0.000000
-0.000000
-0.000000
-0.000000
-0.000000
-0.000000
-0.000000
-0.000000
-0.000000
-0.000000
-0.000000
-0.000000
-0.000000
-0.000000
-0.000000
-0.000000
-0.000000
-0.000000
-0.000000
-0.000000
-0.000000
-0.000000
-0.000000
-0.000000
-0.000000
-0.000000
-0.000000
-0.000000
-0.000000
0.000000
-0.000000
-0.000000
-0.000000
-0.000000
-0.000000
-0.000000
-0.000000
-0.000000
-0.000000
-0.000000
0.000000
-0.000000
0.000000
-0.000000
-0.000000
-0.000000
-0.000000
-0.000000
-0.000000
-0.000000
-0.000000
0.000000
0.000000
0.000000
0.000000
0.000000
-0.000000
-0.000000
-0.000000
-0.000000
-0.000000
-0.000000
-0.000000
-0.000000
-0.000000
0.000000
-0.000000
0.000000
-0.000000
0.000000
-0.000000
0.000000

SCALARS sigma_yy FLOAT 1
LOOKUP_TABLE default
-35626.765739
-35626.765739
-35626.765739
-35626.765739
-35384.298965
-35104.181926
-35384.298965
-35104.181926
-34758.745654
-34445.433374
-34758.745654
-34445.433374
-34120.132808
-33904.917910
-34120.132808
-33904.917910
-33620.380915
-33351.726193
-33620.380915
-33351.726193
-33042.939388
-32762.795301
-33042.939388
-32762.795301
-32455.518113
-32210.361184
-32455.518113
-32210.361184
-31925.801555
-31658.241440
-31925.801555
-31658.241440
-31351.275836
-31086.817989
-31351.275836
-31086.817989
-30788.797593
-30543.467678
-30788.797593
-30543.467678
-30234.911745
-29966.700174
-30234.911745
-29966.700174
-29652.582775
-29400.577424
-29652.582775
-29400.577424
-29090.589283
-28838.881113
-29090.589283
-28838.881113
-28534.871429
-28277.251152
-28534.871429
-28277.251152
-27959.684015
-27711.399541
-27959.684015
-27711.399541
-27409.382784
-27162.563250
-27409.382784
-27162.563250
-26864.922434
-26576.114368
-26864.922434
-26576.114368
-26297.265132
-26024.183952
-26297.265132
-26024.183952
-25734.201129
-25452.945517
-25734.201129
-25452.945517
-25171.486554
-24890.841058
-25171.486554
-24890.841058
-24591.323352
-24350.449717
-24591.323352
-24350.449717
-24048.641150
-23780.706019
-24048.641150
-23780.706019
-23453.090890
-23213.213335
-23453.090890
-23213.213335
-22908.758856
-22655.622174
-22908.758856
-22655.622174
-22362.289303
-22075.076010
-22362.289303
-22075.076010
-21800.507164
-21517.314367
-21800.507164
-21517.314367
-21223.769890
-20963.268579
-21223.769890
-20963.268579
-20654.156941
-20390.019285
-20654.156941
-20390.019285
-20099.737265
-19833.672928
-20099.737265
-19833.672928
-19533.299958
-19270.373560
-19533.299958
-19270.373560
-18977.625765
-18721.498926
-18977.625765
-18721.498926
-18426.677214
-18156.918914
-18426.677214
-18156.918914
-17837.062042
-17595.552920
-17837.062042
-17595.552920
-17273.155485
-17022.501910
-17273.155485
-17022.501910
-16711.497829
-16461.726193
-16711.497829
-16461.726193
-16170.461451
-15894.138851
-16170.461451
-15894.138851
-15608.720635
-15336.394298
-15608.720635
-15336.394298
-15050.332265
-14770.949789
-15050.332265
-14770.949789
-14457.063729
-14204.295873
-14457.063729
-14204.295873
-13937.476085
-13638.151276
-13937.476085
-13638.151276
-13377.906162
-13069.232057
-13377.906162
-13069.232057
-12793.773875
-12496.425980
-12793.773875
-12496.425980
-12223.492732
-11961.487686
-12223.492732
-11961.487686
-11686.528749
-11411.451661
-11686.528749
-11411.451661
-11119.481775
-10825.463877
-11119.481775
-10825.463877
-10539.920446
-10251.028568
-10539.920446
-10251.028568
-9992.784639
-9702.575927
-9992.784639
-9702.575927
-9422.213384
-9145.126920
-9422.213384
-9145.126920
-8840.095030
-8582.944009
-8840.095030
-8582.944009
-8284.068076
-8044.016073
-8284.068076
-8044.016073
-7730.936001
-7460.514678
-7730.936001
-7460.514678
-7170.833331
-6890.072184
-7170.833331
-6890.072184
-6607.638172
-6324.521533
-6607.638172
-6324.521533
-6051.246328
-5764.949120
-6051.246328
-5764.949120
-5481.777036
-5207.284659
-5481.777036
-5207.284659
-4912.988769
-4646.435116
-4912.988769
-4646.435116
-4340.051366
-4067.334383
-4340.051366
-4067.334383
-3800.523006
-3547.996022
-3800.523006
-3547.996022
-3235.234600
-2950.959771
-3235.234600
-2950.959771
-2643.684394
-2407.125584
-2643.684394
-2407.125584
-2119.662854
-1807.937726
-2119.662854
-1807.937726
-1536.382367
-1300.531522
-1536.382367
-1300.531522
-990.664785
-621.981475
-990.664785
-621.981475
-504.243189
-96.270873
-504.243189
-96.270873

SCALARS sigma_zz FLOAT 1
LOOKUP_TABLE default
0.000000
0.000000
0.000000
0.000000
0.000000
0.000000
0.000000
0.000000
0.000000
0.000000
0.000000
0.000000
0.000000
0.000000
0.000000
0.000000
0.000000
0.000000
0.000000
0.000000
0.000000
0.000000
0.000000
0.000000
0.000000
0.000000
0.000000
0.000000
0.000000
0.000000
0.000000
0.000000
0.000000
0.000000
0.000000
0.000000
0.000000
0.000000
0.000000
0.000000
0.000000
0.000000
0.000000
0.000000
0.000000
0.000000
0.000000
0.000000
0.000000
0.000000
0.000000
0.000000
0.000000
0.000000
0.000000
0.000000
0.000000
0.000000
0.000000
0.000000
0.000000
0.000000
0.000000
0.000000
0.000000
0.000000
0.000000
0.000000
0.000000
0.000000
0.000000
0.000000
0.000000
0.000000
0.000000
0.000000
0.000000
0.000000
0.000000
0.000000
0.000000
0.000000
0.000000
0.000000
0.000000
0.000000
0.000000
0.000000
0.000000
0.000000
0.000000
0.000000
0.000000
0.000000
0.000000
0.000000
0.000000
0.000000
0.000000
0.000000
0.000000
0.000000
0.000000
0.000000
0.000000
0.000000
0.000000
0.000000
0.000000
0.000000
0.000000
0.000000
0.000000
0.000000
0.000000
0.000000
0.000000
0.000000
0.000000
0.000000
0.000000
0.000000
0.000000
0.000000
0.000000
0.000000
0.000000
0.000000
0.000000
0.000000
0.000000
0.000000
0.000000
0.000000
0.000000
0.000000
0.000000
0.000000
0.000000
0.000000
0.000000
0.000000
0.000000
0.000000
0.000000
0.000000
0.000000
0.000000
0.000000
0.000000
0.000000
0.000000
0.000000
0.000000
0.000000
0.000000
0.000000
0.000000
0.000000
0.000000
0.000000
0.000000
0.000000
0.000000
0.000000
0.000000
0.000000
0.000000
0.000000
0.000000
0.000000
0.000000
0.000000
0.000000
0.000000
0.000000
0.000000
0.000000
0.000000
0.000000
0.000000
0.000000
0.000000
0.000000
0.000000
0.000000
0.000000
0.000000
0.000000
0.000000
0.000000
0.000000
0.000000
0.000000
0.000000
0.000000
0.000000
0.000000
0.000000
0.000000
0.000000
0.000000
0.000000
0.000000
0.000000
0.000000
0.000000
0.000000
0.000000
0.000000
0.000000
0.000000
0.000000
0.000000
0.000000
0.000000
0.000000
0.000000
0.000000
0.000000
0.000000
0.000000
0.000000
0.000000
0.000000
0.000000
0.000000
0.000000
0.000000
0.000000
0.000000
0.000000
0.000000
0.000000
0.000000
0.000000
0.000000
0.000000
0.000000
0.000000
0.000000
0.000000
0.000000
0.000000
0.000000
0.000000
0.000000
0.000000
0.000000
0.000000
0.000000
0.000000
0.000000
0.000000
0.000000
0.000000

SCALARS sigma_xy FLOAT 1
LOOKUP_TABLE default
0.000000
-0.000000
0.000000
-0.000000
-0.000000
-0.000000
-0.000000
-0.000000
-0.000000
-0.000000
-0.000000
-0.000000
-0.000000
-0.000000
-0.000000
-0.000000
0.000000
0.000000
0.000000
0.000000
0.000000
0.000000
0.000000
0.000000
0.000000
0.000000
0.000000
0.000000
0.000000
0.000000
0.000000
0.000000
-0.000000
-0.000000
-0.000000
-0.000000
-0.000000
-0.000000
-0.000000
-0.000000
0.000000
0.000000
0.000000
0.000000
0.000000
0.000000
0.000000
0.000000
-0.000000
-0.000000
-0.000000
-0.000000
-0.000000
-0.000000
-0.000000
-0.000000
-0.000000
-0.000000
-0.000000
-0.000000
0.000000
0.000000
0.000000
0.000000
0.000000
0.000000
0.000000
0.000000
0.000000
0.000000
0.000000
0.000000
0.000000
0.000000
0.000000
0.000000
-0.000000
-0.000000
-0.000000
-0.000000
0.000000
-0.000000
0.000000
-0.000000
0.000000
0.000000
0.000000
0.000000
0.000000
-0.000000
0.000000
-0.000000
-0.000000
-0.000000
-0.000000
-0.000000
-0.000000
-0.000000
-0.000000
-0.000000
0.000000
0.000000
0.000000
0.000000
0.000000
0.000000
-0.000000
0.000000
-0.000000
-0.000000
-0.000000
-0.000000
0.000000
-0.000000
0.000000
-0.000000
0.000000
-0.000000
0.000000
-0.000000
-0.000000
0.000000
-0.000000
0.000000
-0.000000
0.000000
-0.000000
0.000000
0.000000
0.000000
0.000000
0.000000
0.000000
-0.000000
0.000000
-0.000000
-0.000000
-0.000000
-0.000000
-0.000000
-0.000000
0.000000
-0.000000
0.000000
0.000000
0.000000
0.000000
0.000000
0.000000
-0.000000
0.000000
0.000000
-0.000000
-0.000000
-0.000000
-0.000000
-0.000000
-0.000000
-0.000000
-0.000000
0.000000
0.000000
0.000000
0.000000
0.000000
0.000000
0.000000
0.000000
0.000000
0.000000
0.000000
0.000000
0.000000
0.000000
0.000000
0.000000
-0.000000
-0.000000
-0.000000
-0.000000
-0.000000
-0.000000
-0.000000
-0.000000
0.000000
-0.000000
0.000000
-0.000000
0.000000
0.000000
0.000000
0.000000
0.000000
-0.000000
0.000000
-0.000000
0.000000
0.000000
0.000000
0.000000
0.000000
-0.000000
0.000000
-0.000000
-0.000000
-0.000000
-0.000000
-0.000000
0.000000
0.000000
0.000000
0.000000
0.000000
0.000000
0.000000
0.000000
-0.000000
0.000000
-0.000000
0.000000
-0.000000
0.000000
-0.000000
0.000000
0.000000
-0.000000
0.000000
-0.000000
-0.000000
-0.000000
-0.000000
-0.000000
0.000000
-0.000000
0.000000
0.000000
0.000000
0.000000
0.000000
0.000000
0.000000
0.000000
0.000000
0.000000
-0.000000
-0.000000
-0.000000
-0.000000
-0.000000
0.000000
-0.000000
0.000000
-0.000000
0.000000
-0.000000
0.000000

SCALARS sigma_yz FLOAT 1
LOOKUP_TABLE default
0.000000
0.000000
0.000000
0.000000
0.000000
0.000000
0.000000
0.000000
0.000000
0.000000
0.000000
0.000000
0.000000
0.000000
0.000000
0.000000
0.000000
0.000000
0.000000
0.000000
0.000000
0.000000
0.000000
0.000000
0.000000
0.000000
0.000000
0.000000
0.000000
0.000000
0.000000
0.000000
0.000000
0.000000
0.000000
0.000000
0.000000
0.000000
0.000000
0.000000
0.000000
0.000000
0.000000
0.000000
0.000000
0.000000
0.000000
0.000000
0.000000
0.000000
0.000000
0.000000
0.000000
0.000000
0.000000
0.000000
0.000000
0.000000
0.000000
0.000000
0.000000
0.000000
0.000000
0.000000
0.000000
0.000000
0.000000
0.000000
0.000000
0.000000
0.000000
0.000000
0.000000
0.000000
0.000000
0.000000
0.000000
0.000000
0.000000
0.000000
0.000000
0.000000
0.000000
0.000000
0.000000
0.000000
0.000000
0.000000
0.000000
0.000000
0.000000
0.000000
0.000000
0.000000
0.000000
0.000000
0.000000
0.000000
0.000000
0.000000
0.000000
0.000000
0.000000
0.000000
0.000000
0.000000
0.000000
0.000000
0.000000
0.000000
0.000000
0.000000
0.000000
0.000000
0.000000
0.000000
0.000000
0.000000
0.000000
0.000000
0.000000
0.000000
0.000000
0.000000
0.000000
0.000000
0.000000
0.000000
0.000000
0.000000
0.000000
0.000000
0.000000
0.000000
0.000000
0.000000
0.000000
0.000000
0.000000
0.000000
0.000000
0.000000
0.000000
0.000000
0.000000
0.000000
0.000000
0.000000
0.000000
0.000000
0.000000
0.000000
0.000000
0.000000
0.000000
0.000000
0.000000
0.000000
0.000000
0.000000
0.000000
0.000000
0.000000
0.000000
0.000000
0.000000
0.000000
0.000000
0.000000
0.000000
0.000000
0.000000
0.000000
0.000000
0.000000
0.000000
0.000000
0.000000
0.000000
0.000000
0.000000
0.000000
0.000000
0.000000
0.000000
0.000000
0.000000
0.000000
0.000000
0.000000
0.000000
0.000000
0.000000
0.000000
0.000000
0.000000
0.000000
0.000000
0.000000
0.000000
0.000000
0.000000
0.000000
0.000000
0.000000
0.000000
0.000000
0.000000
0.000000
0.000000
0.000000
0.000000
0.000000
0.000000
0.000000
0.000000
0.000000
0.000000
0.000000
0.000000
0.000000
0.000000
0.000000
0.000000
0.000000
0.000000
0.000000
0.000000
0.000000
0.000000
0.000000
0.000000
0.000000
0.000000
0.000000
0.000000
0.000000
0.000000
0.000000
0.000000
0.000000
0.000000
0.000000
0.000000
0.000000
0.000000
0.000000
0.000000
0.000000
0.000000
0.000000
0.000000
0.000000
0.000000
0.000000
0.000000

SCALARS sigma_zx FLOAT 1
LOOKUP_TABLE default
0.000000
0.000000
0.000000
0.000000
0.000000
0.000000
0.000000
0.000000
0.000000
0.000000
0.000000
0.000000
0.000000
0.000000
0.000000
0.000000
0.000000
0.000000
0.000000
0.000000
0.000000
0.000000
0.000000
0.000000
0.000000
0.000000
0.000000
0.000000
0.000000
0.000000
0.000000
0.000000
0.000000
0.000000
0.000000
0.000000
0.000000
0.000000
0.000000
0.000000
0.000000
0.000000
0.000000
0.000000
0.000000
0.000000
0.000000
0.000000
0.000000
0.000000
0.000000
0.000000
0.000000
0.000000
0.000000
0.000000
0.000000
0.000000
0.000000
0.000000
0.000000
0.000000
0.000000
0.000000
0.000000
0.000000
0.000000
0.000000
0.000000
0.000000
0.000000
0.000000
0.000000
0.000000
0.000000
0.000000
0.000000
0.000000
0.000000
0.000000
0.000000
0.000000
0.000000
0.000000
0.000000
0.000000
0.000000
0.000000
0.000000
0.000000
0.000000
0.000000
0.000000
0.000000
0.000000
0.000000
0.000000
0.000000
0.000000
0.000000
0.000000
0.000000
0.000000
0.000000
0.000000
0.000000
0.000000
0.000000
0.000000
0.000000
0.000000
0.000000
0.000000
0.000000
0.000000
0.000000
0.000000
0.000000
0.000000
0.000000
0.000000
0.000000
0.000000
0.000000
0.000000
0.000000
0.000000
0.000000
0.000000
0.000000
0.000000
0.000000
0.000000
0.000000
0.000000
0.000000
0.000000
0.000000
0.000000
0.000000
0.000000
0.000000
0.000000
0.000000
0.000000
0.000000
0.000000
0.000000
0.000000
0.000000
0.000000
0.000000
0.000000
0.000000
0.000000
0.000000
0.000000
0.000000
0.000000
0.000000
0.000000
0.000000
0.000000
0.000000
0.000000
0.000000
0.000000
0.000000
0.000000
0.000000
0.000000
0.000000
0.000000
0.000000
0.000000
0.000000
0.000000
0.000000
0.000000
0.000000
0.000000
0.000000
0.000000
0.000000
0.000000
0.000000
0.000000
0.000000
0.000000
0.000000
0.000000
0.000000
0.000000
0.000000
0.000000
0.000000
0.000000
0.000000
0.000000
0.000000
0.000000
0.000000
0.000000
0.000000
0.000000
0.000000
0.000000
0.000000
0.000000
0.000000
0.000000
0.000000
0.000000
0.000000
0.000000
0.000000
0.000000
0.000000
0.000000
0.000000
0.000000
0.000000
0.000000
0.000000
0.000000
0.000000
0.000000
0.000000
0.000000
0.000000
0.000000
0.000000
0.000000
0.000000
0.000000
0.000000
0.000000
0.000000
0.000000
0.000000
0.000000
0.000000
0.000000
0.000000
0.000000
0.000000
0.000000
0.000000
0.000000
0.000000
0.000000
0.000000
0.000000
0.000000
0.000000
0.000000

SCALARS u_x FLOAT 1
LOOKUP_TABLE default
0.000000
0.000000
0.000000
0.000000
0.000000
0.000000
0.000000
0.000000
0.000000
0.000000
0.000000
0.000000
0.000000
0.000000
0.000000
0.000000
0.000000
0.000000
0.000000
0.000000
0.000000
0.000000
0.000000
0.000000
0.000000
0.000000
0.000000
0.000000
0.000000
0.000000
0.000000
0.000000
0.000000
0.000000
0.000000
0.000000
0.000000
0.000000
0.000000
0.000000
0.000000
0.000000
0.000000
0.000000
0.000000
0.000000
0.000000
0.000000
0.000000
0.000000
0.000000
0.000000
0.000000
0.000000
0.000000
0.000000
0.000000
0.000000
0.000000
0.000000
0.000000
0.000000
0.000000
0.000000
0.000000
0.000000
0.000000
0.000000
0.000000
0.000000
0.000000
0.000000
0.000000
0.000000
0.000000
0.000000
0.000000
0.000000
0.000000
0.000000
0.000000
0.000000
0.000000
0.000000
0.000000
0.000000
0.000000
0.000000
0.000000
0.000000
0.000000
0.000000
0.000000
0.000000
0.000000
0.000000
0.000000
0.000000
0.000000
0.000000
0.000000
0.000000
0.000000
0.000000
0.000000
0.000000
0.000000
0.000000
0.000000
0.000000
0.000000
0.000000
0.000000
0.000000
0.000000
0.000000
0.000000
0.000000
0.000000
0.000000
0.000000
0.000000
0.000000
0.000000
0.000000
0.000000
0.000000
0.000000
0.000000
0.000000
0.000000
0.000000
0.000000
0.000000
0.000000
0.000000
0.000000
0.000000
0.000000
0.000000
0.000000
0.000000
0.000000
0.000000
0.000000
0.000000
0.000000
0.000000
0.000000
0.000000
0.000000
0.000000
0.000000
0.000000
0.000000
0.000000
0.000000
0.000000
0.000000
0.000000
0.000000
0.000000
0.000000
0.000000
0.000000
0.000000
0.000000
0.000000
0.000000
0.000000
0.000000
0.000000
0.000000
0.000000
0.000000
0.000000
0.000000
0.000000
0.000000
0.000000
0.000000
0.000000
0.000000
0.000000
0.000000
0.000000
0.000000
0.000000
0.000000
0.000000
0.000000
0.000000
0.000000
0.000000
0.000000
0.000000
0.000000
0.000000
0.000000
0.000000
0.000000
0.000000
0.000000
0.000000
0.000000
0.000000
0.000000
0.000000
0.000000
0.000000
0.000000
0.000000
0.000000
0.000000
0.000000
0.000000
0.000000
0.000000
0.000000
0.000000
0.000000
0.000000
0.000000
0.000000
0.000000
0.000000
0.000000
0.000000
0.000000
0.000000
0.000000
0.000000
0.000000
0.000000
0.000000
0.000000
0.000000
0.000000
0.000000
0.000000
0.000000
0.000000
0.000000
0.000000
0.000000
0.000000
0.000000
0.000000
0.000000
0.000000
0.000000
0.000000
0.000000
0.000000
0.000000
0.000000

SCALARS u_y FLOAT 1
LOOKUP_TABLE default
-0.132831
-0.398492
-0.132831
-0.398492
-0.663981
-0.928902
-0.663981
-0.928902
-1.193268
-1.456967
-1.193268
-1.456967
-1.720044
-1.982596
-1.720044
-1.982596
-2.244659
-2.506152
-2.244659
-2.506152
-2.767066
-3.027361
-2.767066
-3.027361
-3.287045
-3.546144
-3.287045
-3.546144
-3.804697
-4.062641
-3.804697
-4.062641
-4.319976
-4.576671
-4.319976
-4.576671
-4.832728
-5.088181
-4.832728
-5.088181
-5.342986
-5.597142
-5.342986
-5.597142
-5.850621
-6.103432
-5.850621
-6.103432
-6.355536
-6.606985
-6.355536
-6.606985
-6.857737
-7.107834
-6.857737
-7.107834
-7.357171
-7.605777
-7.357171
-7.605777
-7.853707
-8.100909
-7.853707
-8.100909
-8.347374
-8.593039
-8.347374
-8.593039
-8.838006
-9.082116
-8.838006
-9.082116
-9.325491
-9.568038
-9.325491
-9.568038
-9.809811
-10.050743
-9.809811
-10.050743
-10.290794
-10.530127
-10.290794
-10.530127
-10.768517
-11.006135
-10.768517
-11.006135
-11.242755
-11.478530
-11.242755
-11.478530
-11.713388
-11.947362
-11.713388
-11.947362
-12.180437
-12.412491
-12.180437
-12.412491
-12.643639
-12.873818
-12.643639
-12.873818
-13.102929
-13.331154
-13.102929
-13.331154
-13.558212
-13.784287
-13.558212
-13.784287
-14.009314
-14.233298
-14.009314
-14.233298
-14.456177
-14.677958
-14.456177
-14.677958
-14.898615
-15.118116
-14.898615
-15.118116
-15.336565
-15.553766
-15.336565
-15.553766
-15.769662
-15.984427
-15.769662
-15.984427
-16.197838
-16.410045
-16.197838
-16.410045
-16.620963
-16.830438
-16.620963
-16.830438
-17.038746
-17.245570
-17.038746
-17.245570
-17.451071
-17.655135
-17.451071
-17.655135
-17.857761
-18.058859
-17.857761
-18.058859
-18.258382
-18.456336
-18.258382
-18.456336
-18.652866
-18.847716
-18.652866
-18.847716
-19.040985
-19.232444
-19.040985
-19.232444
-19.422232
-19.610192
-19.422232
-19.610192
-19.796209
-19.980676
-19.796209
-19.980676
-20.163146
-20.343852
-20.163146
-20.343852
-20.522499
-20.699107
-20.522499
-20.699107
-20.873405
-21.045604
-20.873405
-21.045604
-21.215653
-21.383508
-21.215653
-21.383508
-21.548962
-21.712189
-21.548962
-21.712189
-21.872714
-22.030830
-21.872714
-22.030830
-22.186246
-22.339270
-22.186246
-22.339270
-22.489503
-22.636711
-22.489503
-22.636711
-22.781106
-22.922277
-22.781106
-22.922277
-23.060433
-23.195141
-23.060433
-23.195141
-23.326800
-23.454852
-23.326800
-23.454852
-23.579092
-23.699820
-23.579092
-23.699820
-23.816442
-23.929191
-23.816442
-23.929191
-24.037386
-24.141150
-24.037386
-24.141150
-24.240405
-24.335247
-24.240405
-24.335247
-24.425226
-24.509236
-24.425226
-24.509236
-24.587592
-24.659859
-24.587592
-24.659859
-24.727063
-24.786480
-24.727063
-24.786480
-24.839286
-24.884986
-24.839286
-24.884986
-24.923944
-24.950939
-24.923944
-24.950939
-24.971545
-24.988958
-24.971545
-24.988958

