# vtk DataFile Version 2.0
MATLAB generated vtk file, WMC
ASCII
DATASET UNSTRUCTURED_GRID
POINTS 256 double
0.195312 0.072444 0.000000 
0.195312 0.217333 0.000000 
0.585938 0.072444 0.000000 
0.585938 0.217333 0.000000 
0.195312 0.362421 0.000000 
0.195312 0.508167 0.000000 
0.585938 0.362421 0.000000 
0.585938 0.508167 0.000000 
0.195312 0.654558 0.000000 
0.195312 0.801704 0.000000 
0.585938 0.654558 0.000000 
0.585938 0.801704 0.000000 
0.195312 0.949409 0.000000 
0.195312 1.097650 0.000000 
0.585938 0.949409 0.000000 
0.585938 1.097650 0.000000 
0.195312 1.246455 0.000000 
0.195312 1.395921 0.000000 
0.585938 1.246455 0.000000 
0.585938 1.395921 0.000000 
0.195312 1.546053 0.000000 
0.195312 1.696824 0.000000 
0.585938 1.546053 0.000000 
0.585938 1.696824 0.000000 
0.195312 1.848162 0.000000 
0.195312 2.000141 0.000000 
0.585938 1.848162 0.000000 
0.585938 2.000141 0.000000 
0.195312 2.152752 0.000000 
0.195312 2.306065 0.000000 
0.585938 2.152752 0.000000 
0.585938 2.306065 0.000000 
0.195312 2.460043 0.000000 
0.195312 2.614653 0.000000 
0.585938 2.460043 0.000000 
0.585938 2.614653 0.000000 
0.195312 2.769920 0.000000 
0.195312 2.925873 0.000000 
0.585938 2.769920 0.000000 
0.585938 2.925873 0.000000 
0.195312 3.082573 0.000000 
0.195312 3.239973 0.000000 
0.585938 3.082573 0.000000 
0.585938 3.239973 0.000000 
0.195312 3.398055 0.000000 
0.195312 3.556799 0.000000 
0.585938 3.398055 0.000000 
0.585938 3.556799 0.000000 
0.195312 3.716278 0.000000 
0.195312 3.876504 0.000000 
0.585938 3.716278 0.000000 
0.585938 3.876504 0.000000 
0.195312 4.037507 0.000000 
0.195312 4.199188 0.000000 
0.585938 4.037507 0.000000 
0.585938 4.199188 0.000000 
0.195312 4.361676 0.000000 
0.195312 4.524939 0.000000 
0.585938 4.361676 0.000000 
0.585938 4.524939 0.000000 
0.195312 4.688958 0.000000 
0.195312 4.853720 0.000000 
0.585938 4.688958 0.000000 
0.585938 4.853720 0.000000 
0.195312 5.019258 0.000000 
0.195312 5.185635 0.000000 
0.585938 5.019258 0.000000 
0.585938 5.185635 0.000000 
0.195312 5.352734 0.000000 
0.195312 5.520774 0.000000 
0.585938 5.352734 0.000000 
0.585938 5.520774 0.000000 
0.195312 5.689618 0.000000 
0.195312 5.859334 0.000000 
0.585938 5.689618 0.000000 
0.585938 5.859334 0.000000 
0.195312 6.029865 0.000000 
0.195312 6.201284 0.000000 
0.585938 6.029865 0.000000 
0.585938 6.201284 0.000000 
0.195312 6.373607 0.000000 
0.195312 6.546680 0.000000 
0.585938 6.373607 0.000000 
0.585938 6.546680 0.000000 
0.195312 6.720774 0.000000 
0.195312 6.895685 0.000000 
0.585938 6.720774 0.000000 
0.585938 6.895685 0.000000 
0.195312 7.071669 0.000000 
0.195312 7.248510 0.000000 
0.585938 7.071669 0.000000 
0.585938 7.248510 0.000000 
0.195312 7.426283 0.000000 
0.195312 7.605024 0.000000 
0.585938 7.426283 0.000000 
0.585938 7.605024 0.000000 
0.195312 7.784716 0.000000 
0.195312 7.965458 0.000000 
0.585938 7.784716 0.000000 
0.585938 7.965458 0.000000 
0.195312 8.147131 0.000000 
0.195312 8.329845 0.000000 
0.585938 8.147131 0.000000 
0.585938 8.329845 0.000000 
0.195312 8.513645 0.000000 
0.195312 8.698386 0.000000 
0.585938 8.513645 0.000000 
0.585938 8.698386 0.000000 
0.195312 8.884283 0.000000 
0.195312 9.071181 0.000000 
0.585938 8.884283 0.000000 
0.585938 9.071181 0.000000 
0.195312 9.259275 0.000000 
0.195312 9.448465 0.000000 
0.585938 9.259275 0.000000 
0.585938 9.448465 0.000000 
0.195312 9.638729 0.000000 
0.195312 9.830123 0.000000 
0.585938 9.638729 0.000000 
0.585938 9.830123 0.000000 
0.195312 10.022661 0.000000 
0.195312 10.216430 0.000000 
0.585938 10.022661 0.000000 
0.585938 10.216430 0.000000 
0.195312 10.411352 0.000000 
0.195312 10.607566 0.000000 
0.585938 10.411352 0.000000 
0.585938 10.607566 0.000000 
0.195312 10.805133 0.000000 
0.195312 11.003842 0.000000 
0.585938 10.805133 0.000000 
0.585938 11.003842 0.000000 
0.195312 11.203899 0.000000 
0.195312 11.405149 0.000000 
0.585938 11.203899 0.000000 
0.585938 11.405149 0.000000 
0.195312 11.607709 0.000000 
0.195312 11.811760 0.000000 
0.585938 11.607709 0.000000 
0.585938 11.811760 0.000000 
0.195312 12.016973 0.000000 
0.195312 12.223728 0.000000 
0.585938 12.016973 0.000000 
0.585938 12.223728 0.000000 
0.195312 12.431797 0.000000 
0.195312 12.641375 0.000000 
0.585938 12.431797 0.000000 
0.585938 12.641375 0.000000 
0.195312 12.852429 0.000000 
0.195312 13.065037 0.000000 
0.585938 12.852429 0.000000 
0.585938 13.065037 0.000000 
0.195312 13.279296 0.000000 
0.195312 13.495079 0.000000 
0.585938 13.279296 0.000000 
0.585938 13.495079 0.000000 
0.195312 13.712266 0.000000 
0.195312 13.931187 0.000000 
0.585938 13.712266 0.000000 
0.585938 13.931187 0.000000 
0.195312 14.151610 0.000000 
0.195312 14.373844 0.000000 
0.585938 14.151610 0.000000 
0.585938 14.373844 0.000000 
0.195312 14.597714 0.000000 
0.195312 14.823440 0.000000 
0.585938 14.597714 0.000000 
0.585938 14.823440 0.000000 
0.195312 15.051143 0.000000 
0.195312 15.280376 0.000000 
0.585938 15.051143 0.000000 
0.585938 15.280376 0.000000 
0.195312 15.511767 0.000000 
0.195312 15.744810 0.000000 
0.585938 15.511767 0.000000 
0.585938 15.744810 0.000000 
0.195312 15.979855 0.000000 
0.195312 16.216814 0.000000 
0.585938 15.979855 0.000000 
0.585938 16.216814 0.000000 
0.195312 16.455993 0.000000 
0.195312 16.697196 0.000000 
0.585938 16.455993 0.000000 
0.585938 16.697196 0.000000 
0.195312 16.940541 0.000000 
0.195312 17.186144 0.000000 
0.585938 16.940541 0.000000 
0.585938 17.186144 0.000000 
0.195312 17.434118 0.000000 
0.195312 17.684034 0.000000 
0.585938 17.434118 0.000000 
0.585938 17.684034 0.000000 
0.195312 17.936724 0.000000 
0.195312 18.191496 0.000000 
0.585938 17.936724 0.000000 
0.585938 18.191496 0.000000 
0.195312 18.448998 0.000000 
0.195312 18.708740 0.000000 
0.585938 18.448998 0.000000 
0.585938 18.708740 0.000000 
0.195312 18.971407 0.000000 
0.195312 19.236868 0.000000 
0.585938 18.971407 0.000000 
0.585938 19.236868 0.000000 
0.195312 19.504818 0.000000 
0.195312 19.775858 0.000000 
0.585938 19.504818 0.000000 
0.585938 19.775858 0.000000 
0.195312 20.049860 0.000000 
0.195312 20.327270 0.000000 
0.585938 20.049860 0.000000 
0.585938 20.327270 0.000000 
0.195312 20.607141 0.000000 
0.195312 20.890229 0.000000 
0.585938 20.607141 0.000000 
0.585938 20.890229 0.000000 
0.195312 21.176906 0.000000 
0.195312 21.466956 0.000000 
0.585938 21.176906 0.000000 
0.585938 21.466956 0.000000 
0.195312 21.760667 0.000000 
0.195312 22.057683 0.000000 
0.585938 21.760667 0.000000 
0.585938 22.057683 0.000000 
0.195312 22.358940 0.000000 
0.195312 22.664294 0.000000 
0.585938 22.358940 0.000000 
0.585938 22.664294 0.000000 
0.195312 22.973580 0.000000 
0.195312 23.286923 0.000000 
0.585938 22.973580 0.000000 
0.585938 23.286923 0.000000 
0.195312 23.604608 0.000000 
0.195312 23.927087 0.000000 
0.585938 23.604608 0.000000 
0.585938 23.927087 0.000000 
0.195312 24.254131 0.000000 
0.195312 24.586996 0.000000 
0.585938 24.254131 0.000000 
0.585938 24.586996 0.000000 
0.195312 24.924803 0.000000 
0.195312 25.268449 0.000000 
0.585938 24.924803 0.000000 
0.585938 25.268449 0.000000 
0.195312 25.616969 0.000000 
0.195312 25.971934 0.000000 
0.585938 25.616969 0.000000 
0.585938 25.971934 0.000000 
0.195312 26.332680 0.000000 
0.195312 26.701412 0.000000 
0.585938 26.332680 0.000000 
0.585938 26.701412 0.000000 
0.195312 27.075506 0.000000 
0.195312 27.456412 0.000000 
0.585938 27.075506 0.000000 
0.585938 27.456412 0.000000 

POINT_DATA 256
SCALARS sigma_xx FLOAT 1
LOOKUP_TABLE default
0.000000
0.000000
0.000000
0.000000
0.000000
-0.000000
0.000000
-0.000000
-0.000000
-0.000000
-0.000000
-0.000000
-0.000000
-0.000000
-0.000000
-0.000000
-0.000000
-0.000000
-0.000000
-0.000000
-0.000000
-0.000000
-0.000000
-0.000000
-0.000000
-0.000000
-0.000000
-0.000000
-0.000000
-0.000000
-0.000000
-0.000000
0.000000
-0.000000
0.000000
-0.000000
0.000000
0.000000
0.000000
0.000000
-0.000000
-0.000000
-0.000000
-0.000000
-0.000000
0.000000
-0.000000
-0.000000
-0.000000
-0.000000
-0.000000
-0.000000
-0.000000
-0.000000
-0.000000
0.000000
-0.000000
-0.000000
-0.000000
-0.000000
-0.000000
-0.000000
-0.000000
-0.000000
-0.000000
-0.000000
-0.000000
-0.000000
-0.000000
-0.000000
-0.000000
-0.000000
-0.000000
-0.000000
-0.000000
-0.000000
-0.000000
-0.000000
-0.000000
-0.000000
-0.000000
-0.000000
-0.000000
-0.000000
-0.000000
-0.000000
-0.000000
-0.000000
0.000000
0.000000
0.000000
-0.000000
-0.000000
-0.000000
-0.000000
-0.000000
-0.000000
-0.000000
-0.000000
-0.000000
-0.000000
-0.000000
-0.000000
-0.000000
-0.000000
-0.000000
-0.000000
-0.000000
-0.000000
-0.000000
-0.000000
-0.000000
-0.000000
-0.000000
-0.000000
-0.000000
-0.000000
-0.000000
-0.000000
-0.000000
-0.000000
0.000000
-0.000000
-0.000000
-0.000000
-0.000000
-0.000000
-0.000000
-0.000000
0.000000
-0.000000
0.000000
-0.000000
-0.000000
-0.000000
-0.000000
-0.000000
-0.000000
-0.000000
-0.000000
-0.000000
-0.000000
-0.000000
-0.000000
-0.000000
-0.000000
-0.000000
-0.000000
-0.000000
-0.000000
-0.000000
-0.000000
-0.000000
-0.000000
-0.000000
-0.000000
-0.000000
-0.000000
-0.000000
-0.000000
-0.000000
-0.000000
-0.000000
-0.000000
-0.000000
-0.000000
-0.000000
-0.000000
-0.000000
-0.000000
-0.000000
-0.000000
-0.000000
-0.000000
-0.000000
-0.000000
-0.000000
-0.000000
-0.000000
-0.000000
-0.000000
-0.000000
-0.000000
-0.000000
-0.000000
0.000000
-0.000000
0.000000
-0.000000
-0.000000
-0.000000
-0.000000
-0.000000
-0.000000
-0.000000
-0.000000
-0.000000
-0.000000
-0.000000
-0.000000
-0.000000
-0.000000
-0.000000
-0.000000
-0.000000
-0.000000
-0.000000
-0.000000
-0.000000
-0.000000
-0.000000
-0.000000
-0.000000
-0.000000
-0.000000
0.000000
-0.000000
-0.000000
-0.000000
-0.000000
-0.000000
0.000000
-0.000000
-0.000000
-0.000000
0.000000
-0.000000
0.000000
-0.000000
-0.000000
-0.000000
-0.000000
0.000000
-0.000000
0.000000
-0.000000
-0.000000
-0.000000
-0.000000
-0.000000
0.000000
-0.000000
0.000000
-0.000000
-0.000000
-0.000000
-0.000000
0.000000
0.000000
0.000000
-0.000000
0.000000
0.000000
0.000000
0.000000
0.000000

SCALARS sigma_yy FLOAT 1
LOOKUP_TABLE default
-26738.900520
-26738.900520
-26738.900520
-26738.900520
-26544.248369
-26319.401390
-26544.248369
-26319.401390
-26042.169270
-25817.154181
-26042.169270
-25817.154181
-25616.946797
-25445.587997
-25616.946797
-25445.587997
-25216.786124
-25000.788508
-25216.786124
-25000.788508
-24759.577247
-24580.276136
-24759.577247
-24580.276136
-24364.363704
-24167.541218
-24364.363704
-24167.541218
-23938.355285
-23724.741660
-23938.355285
-23724.741660
-23505.621354
-23324.185105
-23505.621354
-23324.185105
-23096.723753
-22898.838272
-23096.723753
-22898.838272
-22652.703481
-22463.864757
-22652.703481
-22463.864757
-22241.128168
-22066.984734
-22241.128168
-22066.984734
-21827.680551
-21624.930004
-21827.680551
-21624.930004
-21394.898073
-21209.143382
-21394.898073
-21209.143382
-20970.646875
-20779.707017
-20970.646875
-20779.707017
-20549.503725
-20373.909991
-20549.503725
-20373.909991
-20150.737828
-19939.545520
-20150.737828
-19939.545520
-19730.074357
-19513.299528
-19730.074357
-19513.299528
-19295.546110
-19086.277721
-19295.546110
-19086.277721
-18874.538872
-18667.528095
-18874.538872
-18667.528095
-18450.416118
-18262.598042
-18450.416118
-18262.598042
-18035.204211
-17829.623319
-18035.204211
-17829.623319
-17584.504035
-17413.908994
-17584.504035
-17413.908994
-17185.481386
-16985.927206
-17185.481386
-16985.927206
-16768.301226
-16560.790024
-16768.301226
-16560.790024
-16347.100340
-16139.955590
-16347.100340
-16139.955590
-15916.901541
-15726.673655
-15916.901541
-15726.673655
-15508.408975
-15300.183724
-15508.408975
-15300.183724
-15058.860919
-14878.008174
-15058.860919
-14878.008174
-14654.189716
-14462.748160
-14654.189716
-14462.748160
-14240.722048
-14038.531798
-14240.722048
-14038.531798
-13806.937506
-13610.501153
-13806.937506
-13610.501153
-13363.825439
-13193.091778
-13363.825439
-13193.091778
-12957.405505
-12772.944163
-12957.405505
-12772.944163
-12537.167671
-12355.034956
-12537.167671
-12355.034956
-12131.888398
-11927.795051
-12131.888398
-11927.795051
-11711.945414
-11500.283729
-11711.945414
-11500.283729
-11285.983106
-11070.799253
-11285.983106
-11070.799253
-10834.651173
-10652.932580
-10834.651173
-10652.932580
-10450.381797
-10226.348264
-10450.381797
-10226.348264
-10042.010513
-9806.228012
-10042.010513
-9806.228012
-9606.763391
-9368.296186
-9606.763391
-9368.296186
-9175.909363
-8958.239496
-9175.909363
-8958.239496
-8745.287403
-8554.475690
-8745.287403
-8554.475690
-8335.802473
-8126.072645
-8335.802473
-8126.072645
-7916.191023
-7697.370279
-7916.191023
-7697.370279
-7496.333122
-7265.688598
-7496.333122
-7265.688598
-7067.504771
-6863.910478
-7067.504771
-6863.910478
-6631.188849
-6453.185596
-6631.188849
-6453.185596
-6212.436288
-6035.186530
-6212.436288
-6035.186530
-5777.303087
-5598.273788
-5777.303087
-5598.273788
-5379.972747
-5165.982892
-5379.972747
-5165.982892
-4937.512713
-4731.936752
-4937.512713
-4731.936752
-4547.011723
-4334.599580
-4547.011723
-4334.599580
-4109.170556
-3904.107031
-4109.170556
-3904.107031
-3688.987665
-3502.175538
-3688.987665
-3502.175538
-3245.574677
-3060.749912
-3245.574677
-3060.749912
-2841.217585
-2656.107246
-2841.217585
-2656.107246
-2416.487133
-2237.434914
-2416.487133
-2237.434914
-1992.777803
-1786.118959
-1992.777803
-1786.118959
-1564.019142
-1370.888791
-1564.019142
-1370.888791
-1166.221435
-956.089271
-1166.221435
-956.089271
-744.160008
-523.130935
-744.160008
-523.130935
-338.221136
-67.964872
-338.221136
-67.964872

SCALARS sigma_zz FLOAT 1
LOOKUP_TABLE default
0.000000
0.000000
0.000000
0.000000
0.000000
0.000000
0.000000
0.000000
0.000000
0.000000
0.000000
0.000000
0.000000
0.000000
0.000000
0.000000
0.000000
0.000000
0.000000
0.000000
0.000000
0.000000
0.000000
0.000000
0.000000
0.000000
0.000000
0.000000
0.000000
0.000000
0.000000
0.000000
0.000000
0.000000
0.000000
0.000000
0.000000
0.000000
0.000000
0.000000
0.000000
0.000000
0.000000
0.000000
0.000000
0.000000
0.000000
0.000000
0.000000
0.000000
0.000000
0.000000
0.000000
0.000000
0.000000
0.000000
0.000000
0.000000
0.000000
0.000000
0.000000
0.000000
0.000000
0.000000
0.000000
0.000000
0.000000
0.000000
0.000000
0.000000
0.000000
0.000000
0.000000
0.000000
0.000000
0.000000
0.000000
0.000000
0.000000
0.000000
0.000000
0.000000
0.000000
0.000000
0.000000
0.000000
0.000000
0.000000
0.000000
0.000000
0.000000
0.000000
0.000000
0.000000
0.000000
0.000000
0.000000
0.000000
0.000000
0.000000
0.000000
0.000000
0.000000
0.000000
0.000000
0.000000
0.000000
0.000000
0.000000
0.000000
0.000000
0.000000
0.000000
0.000000
0.000000
0.000000
0.000000
0.000000
0.000000
0.000000
0.000000
0.000000
0.000000
0.000000
0.000000
0.000000
0.000000
0.000000
0.000000
0.000000
0.000000
0.000000
0.000000
0.000000
0.000000
0.000000
0.000000
0.000000
0.000000
0.000000
0.000000
0.000000
0.000000
0.000000
0.000000
0.000000
0.000000
0.000000
0.000000
0.000000
0.000000
0.000000
0.000000
0.000000
0.000000
0.000000
0.000000
0.000000
0.000000
0.000000
0.000000
0.000000
0.000000
0.000000
0.000000
0.000000
0.000000
0.000000
0.000000
0.000000
0.000000
0.000000
0.000000
0.000000
0.000000
0.000000
0.000000
0.000000
0.000000
0.000000
0.000000
0.000000
0.000000
0.000000
0.000000
0.000000
0.000000
0.000000
0.000000
0.000000
0.000000
0.000000
0.000000
0.000000
0.000000
0.000000
0.000000
0.000000
0.000000
0.000000
0.000000
0.000000
0.000000
0.000000
0.000000
0.000000
0.000000
0.000000
0.000000
0.000000
0.000000
0.000000
0.000000
0.000000
0.000000
0.000000
0.000000
0.000000
0.000000
0.000000
0.000000
0.000000
0.000000
0.000000
0.000000
0.000000
0.000000
0.000000
0.000000
0.000000
0.000000
0.000000
0.000000
0.000000
0.000000
0.000000
0.000000
0.000000
0.000000
0.000000
0.000000
0.000000
0.000000
0.000000
0.000000
0.000000
0.000000
0.000000
0.000000
0.000000
0.000000
0.000000
0.000000
0.000000
0.000000
0.000000

SCALARS sigma_xy FLOAT 1
LOOKUP_TABLE default
0.000000
0.000000
0.000000
0.000000
0.000000
-0.000000
0.000000
-0.000000
-0.000000
-0.000000
-0.000000
-0.000000
0.000000
0.000000
0.000000
0.000000
0.000000
0.000000
0.000000
0.000000
-0.000000
-0.000000
-0.000000
-0.000000
-0.000000
-0.000000
-0.000000
-0.000000
-0.000000
0.000000
-0.000000
0.000000
0.000000
0.000000
0.000000
0.000000
0.000000
0.000000
0.000000
0.000000
0.000000
0.000000
0.000000
0.000000
0.000000
0.000000
0.000000
-0.000000
-0.000000
-0.000000
-0.000000
-0.000000
-0.000000
-0.000000
-0.000000
0.000000
-0.000000
-0.000000
-0.000000
-0.000000
-0.000000
-0.000000
-0.000000
-0.000000
0.000000
0.000000
0.000000
0.000000
0.000000
0.000000
0.000000
0.000000
0.000000
0.000000
0.000000
0.000000
-0.000000
-0.000000
-0.000000
-0.000000
-0.000000
-0.000000
-0.000000
-0.000000
0.000000
0.000000
0.000000
0.000000
0.000000
0.000000
0.000000
0.000000
-0.000000
0.000000
-0.000000
0.000000
0.000000
0.000000
0.000000
0.000000
0.000000
0.000000
0.000000
0.000000
-0.000000
-0.000000
-0.000000
-0.000000
-0.000000
0.000000
-0.000000
0.000000
0.000000
0.000000
0.000000
0.000000
0.000000
0.000000
0.000000
0.000000
-0.000000
0.000000
-0.000000
-0.000000
-0.000000
-0.000000
-0.000000
-0.000000
-0.000000
0.000000
-0.000000
0.000000
0.000000
-0.000000
0.000000
-0.000000
-0.000000
-0.000000
-0.000000
-0.000000
0.000000
0.000000
0.000000
0.000000
0.000000
0.000000
0.000000
0.000000
0.000000
-0.000000
0.000000
-0.000000
-0.000000
-0.000000
-0.000000
-0.000000
0.000000
0.000000
0.000000
0.000000
-0.000000
-0.000000
-0.000000
-0.000000
-0.000000
0.000000
-0.000000
0.000000
0.000000
0.000000
0.000000
0.000000
-0.000000
0.000000
-0.000000
0.000000
-0.000000
-0.000000
-0.000000
-0.000000
-0.000000
0.000000
-0.000000
0.000000
0.000000
0.000000
0.000000
0.000000
0.000000
-0.000000
0.000000
-0.000000
-0.000000
-0.000000
-0.000000
-0.000000
0.000000
0.000000
0.000000
0.000000
0.000000
-0.000000
0.000000
-0.000000
-0.000000
-0.000000
-0.000000
-0.000000
0.000000
0.000000
0.000000
0.000000
0.000000
-0.000000
0.000000
0.000000
-0.000000
0.000000
-0.000000
0.000000
-0.000000
0.000000
-0.000000
0.000000
0.000000
0.000000
0.000000
0.000000
-0.000000
-0.000000
-0.000000
-0.000000
0.000000
-0.000000
0.000000
-0.000000
0.000000
0.000000
0.000000
0.000000
0.000000
0.000000
0.000000
0.000000
-0.000000
-0.000000
-0.000000
0.000000
0.000000
0.000000
-0.000000
0.000000
0.000000
0.000000
0.000000
0.000000

SCALARS sigma_yz FLOAT 1
LOOKUP_TABLE default
0.000000
0.000000
0.000000
0.000000
0.000000
0.000000
0.000000
0.000000
0.000000
0.000000
0.000000
0.000000
0.000000
0.000000
0.000000
0.000000
0.000000
0.000000
0.000000
0.000000
0.000000
0.000000
0.000000
0.000000
0.000000
0.000000
0.000000
0.000000
0.000000
0.000000
0.000000
0.000000
0.000000
0.000000
0.000000
0.000000
0.000000
0.000000
0.000000
0.000000
0.000000
0.000000
0.000000
0.000000
0.000000
0.000000
0.000000
0.000000
0.000000
0.000000
0.000000
0.000000
0.000000
0.000000
0.000000
0.000000
0.000000
0.000000
0.000000
0.000000
0.000000
0.000000
0.000000
0.000000
0.000000
0.000000
0.000000
0.000000
0.000000
0.000000
0.000000
0.000000
0.000000
0.000000
0.000000
0.000000
0.000000
0.000000
0.000000
0.000000
0.000000
0.000000
0.000000
0.000000
0.000000
0.000000
0.000000
0.000000
0.000000
0.000000
0.000000
0.000000
0.000000
0.000000
0.000000
0.000000
0.000000
0.000000
0.000000
0.000000
0.000000
0.000000
0.000000
0.000000
0.000000
0.000000
0.000000
0.000000
0.000000
0.000000
0.000000
0.000000
0.000000
0.000000
0.000000
0.000000
0.000000
0.000000
0.000000
0.000000
0.000000
0.000000
0.000000
0.000000
0.000000
0.000000
0.000000
0.000000
0.000000
0.000000
0.000000
0.000000
0.000000
0.000000
0.000000
0.000000
0.000000
0.000000
0.000000
0.000000
0.000000
0.000000
0.000000
0.000000
0.000000
0.000000
0.000000
0.000000
0.000000
0.000000
0.000000
0.000000
0.000000
0.000000
0.000000
0.000000
0.000000
0.000000
0.000000
0.000000
0.000000
0.000000
0.000000
0.000000
0.000000
0.000000
0.000000
0.000000
0.000000
0.000000
0.000000
0.000000
0.000000
0.000000
0.000000
0.000000
0.000000
0.000000
0.000000
0.000000
0.000000
0.000000
0.000000
0.000000
0.000000
0.000000
0.000000
0.000000
0.000000
0.000000
0.000000
0.000000
0.000000
0.000000
0.000000
0.000000
0.000000
0.000000
0.000000
0.000000
0.000000
0.000000
0.000000
0.000000
0.000000
0.000000
0.000000
0.000000
0.000000
0.000000
0.000000
0.000000
0.000000
0.000000
0.000000
0.000000
0.000000
0.000000
0.000000
0.000000
0.000000
0.000000
0.000000
0.000000
0.000000
0.000000
0.000000
0.000000
0.000000
0.000000
0.000000
0.000000
0.000000
0.000000
0.000000
0.000000
0.000000
0.000000
0.000000
0.000000
0.000000
0.000000
0.000000
0.000000
0.000000
0.000000
0.000000
0.000000
0.000000
0.000000
0.000000
0.000000
0.000000
0.000000
0.000000
0.000000

SCALARS sigma_zx FLOAT 1
LOOKUP_TABLE default
0.000000
0.000000
0.000000
0.000000
0.000000
0.000000
0.000000
0.000000
0.000000
0.000000
0.000000
0.000000
0.000000
0.000000
0.000000
0.000000
0.000000
0.000000
0.000000
0.000000
0.000000
0.000000
0.000000
0.000000
0.000000
0.000000
0.000000
0.000000
0.000000
0.000000
0.000000
0.000000
0.000000
0.000000
0.000000
0.000000
0.000000
0.000000
0.000000
0.000000
0.000000
0.000000
0.000000
0.000000
0.000000
0.000000
0.000000
0.000000
0.000000
0.000000
0.000000
0.000000
0.000000
0.000000
0.000000
0.000000
0.000000
0.000000
0.000000
0.000000
0.000000
0.000000
0.000000
0.000000
0.000000
0.000000
0.000000
0.000000
0.000000
0.000000
0.000000
0.000000
0.000000
0.000000
0.000000
0.000000
0.000000
0.000000
0.000000
0.000000
0.000000
0.000000
0.000000
0.000000
0.000000
0.000000
0.000000
0.000000
0.000000
0.000000
0.000000
0.000000
0.000000
0.000000
0.000000
0.000000
0.000000
0.000000
0.000000
0.000000
0.000000
0.000000
0.000000
0.000000
0.000000
0.000000
0.000000
0.000000
0.000000
0.000000
0.000000
0.000000
0.000000
0.000000
0.000000
0.000000
0.000000
0.000000
0.000000
0.000000
0.000000
0.000000
0.000000
0.000000
0.000000
0.000000
0.000000
0.000000
0.000000
0.000000
0.000000
0.000000
0.000000
0.000000
0.000000
0.000000
0.000000
0.000000
0.000000
0.000000
0.000000
0.000000
0.000000
0.000000
0.000000
0.000000
0.000000
0.000000
0.000000
0.000000
0.000000
0.000000
0.000000
0.000000
0.000000
0.000000
0.000000
0.000000
0.000000
0.000000
0.000000
0.000000
0.000000
0.000000
0.000000
0.000000
0.000000
0.000000
0.000000
0.000000
0.000000
0.000000
0.000000
0.000000
0.000000
0.000000
0.000000
0.000000
0.000000
0.000000
0.000000
0.000000
0.000000
0.000000
0.000000
0.000000
0.000000
0.000000
0.000000
0.000000
0.000000
0.000000
0.000000
0.000000
0.000000
0.000000
0.000000
0.000000
0.000000
0.000000
0.000000
0.000000
0.000000
0.000000
0.000000
0.000000
0.000000
0.000000
0.000000
0.000000
0.000000
0.000000
0.000000
0.000000
0.000000
0.000000
0.000000
0.000000
0.000000
0.000000
0.000000
0.000000
0.000000
0.000000
0.000000
0.000000
0.000000
0.000000
0.000000
0.000000
0.000000
0.000000
0.000000
0.000000
0.000000
0.000000
0.000000
0.000000
0.000000
0.000000
0.000000
0.000000
0.000000
0.000000
0.000000
0.000000
0.000000
0.000000
0.000000
0.000000
0.000000
0.000000
0.000000
0.000000
0.000000
0.000000

SCALARS u_x FLOAT 1
LOOKUP_TABLE default
0.000000
0.000000
0.000000
0.000000
0.000000
0.000000
0.000000
0.000000
0.000000
0.000000
0.000000
0.000000
0.000000
0.000000
0.000000
0.000000
0.000000
0.000000
0.000000
0.000000
0.000000
0.000000
0.000000
0.000000
0.000000
0.000000
0.000000
0.000000
0.000000
0.000000
0.000000
0.000000
0.000000
0.000000
0.000000
0.000000
0.000000
0.000000
0.000000
0.000000
0.000000
0.000000
0.000000
0.000000
0.000000
0.000000
0.000000
0.000000
0.000000
0.000000
0.000000
0.000000
0.000000
0.000000
0.000000
0.000000
0.000000
0.000000
0.000000
0.000000
0.000000
0.000000
0.000000
0.000000
0.000000
0.000000
0.000000
0.000000
0.000000
0.000000
0.000000
0.000000
0.000000
0.000000
0.000000
0.000000
0.000000
0.000000
0.000000
0.000000
0.000000
0.000000
0.000000
0.000000
0.000000
0.000000
0.000000
0.000000
0.000000
0.000000
0.000000
0.000000
0.000000
0.000000
0.000000
0.000000
0.000000
0.000000
0.000000
0.000000
0.000000
0.000000
0.000000
0.000000
0.000000
0.000000
0.000000
0.000000
0.000000
0.000000
0.000000
0.000000
0.000000
0.000000
0.000000
0.000000
0.000000
0.000000
0.000000
0.000000
0.000000
0.000000
0.000000
0.000000
0.000000
0.000000
0.000000
0.000000
0.000000
0.000000
0.000000
0.000000
0.000000
0.000000
0.000000
0.000000
0.000000
0.000000
0.000000
0.000000
0.000000
0.000000
0.000000
0.000000
0.000000
0.000000
0.000000
0.000000
0.000000
0.000000
0.000000
0.000000
0.000000
0.000000
0.000000
0.000000
0.000000
0.000000
0.000000
0.000000
0.000000
0.000000
0.000000
0.000000
0.000000
0.000000
0.000000
0.000000
0.000000
0.000000
0.000000
0.000000
0.000000
0.000000
0.000000
0.000000
0.000000
0.000000
0.000000
0.000000
0.000000
0.000000
0.000000
0.000000
0.000000
0.000000
0.000000
0.000000
0.000000
0.000000
0.000000
0.000000
0.000000
0.000000
0.000000
0.000000
0.000000
0.000000
0.000000
0.000000
0.000000
0.000000
0.000000
0.000000
0.000000
0.000000
0.000000
0.000000
0.000000
0.000000
0.000000
0.000000
0.000000
0.000000
0.000000
0.000000
0.000000
0.000000
0.000000
0.000000
0.000000
0.000000
0.000000
0.000000
0.000000
0.000000
0.000000
0.000000
0.000000
0.000000
0.000000
0.000000
0.000000
0.000000
0.000000
0.000000
0.000000
0.000000
0.000000
0.000000
0.000000
0.000000
0.000000
0.000000
0.000000
0.000000
0.000000
0.000000
0.000000
0.000000
0.000000
0.000000
0.000000
0.000000
0.000000
0.000000

SCALARS u_y FLOAT 1
LOOKUP_TABLE default
-0.122868
-0.368605
-0.122868
-0.368605
-0.614142
-0.859020
-0.614142
-0.859020
-1.103255
-1.346734
-1.103255
-1.346734
-1.589653
-1.832038
-1.589653
-1.832038
-2.073857
-2.315017
-2.073857
-2.315017
-2.555510
-2.795363
-2.555510
-2.795363
-3.034651
-3.273296
-3.034651
-3.273296
-3.511310
-3.748623
-3.511310
-3.748623
-3.985270
-4.221284
-3.985270
-4.221284
-4.456642
-4.691314
-4.456642
-4.691314
-4.925240
-5.158464
-4.925240
-5.158464
-5.391008
-5.622889
-5.391008
-5.622889
-5.854034
-6.084433
-5.854034
-6.084433
-6.314056
-6.543000
-6.314056
-6.543000
-6.771136
-6.998498
-6.771136
-6.998498
-7.225105
-7.450967
-7.225105
-7.450967
-7.676055
-7.900303
-7.676055
-7.900303
-8.123829
-8.346414
-8.123829
-8.346414
-8.568194
-8.789103
-8.568194
-8.789103
-9.009198
-9.228404
-9.009198
-9.228404
-9.446705
-9.664257
-9.446705
-9.664257
-9.880789
-10.096502
-9.880789
-10.096502
-10.311143
-10.524928
-10.311143
-10.524928
-10.737779
-10.949664
-10.737779
-10.949664
-11.160596
-11.370480
-11.160596
-11.370480
-11.579431
-11.787343
-11.579431
-11.787343
-11.994167
-12.200051
-11.994167
-12.200051
-12.404780
-12.608507
-12.404780
-12.608507
-12.811037
-13.012473
-12.811037
-13.012473
-13.212833
-13.412064
-13.212833
-13.412064
-13.610152
-13.807008
-13.610152
-13.807008
-14.002710
-14.197122
-14.002710
-14.197122
-14.390180
-14.582095
-14.390180
-14.582095
-14.772663
-14.962038
-14.772663
-14.962038
-15.150104
-15.336678
-15.150104
-15.336678
-15.522089
-15.705960
-15.522089
-15.705960
-15.888515
-16.069563
-15.888515
-16.069563
-16.249134
-16.427150
-16.249134
-16.427150
-16.603517
-16.778358
-16.603517
-16.778358
-16.951797
-17.123501
-16.951797
-17.123501
-17.293702
-17.462094
-17.293702
-17.462094
-17.628849
-17.793747
-17.628849
-17.793747
-17.956669
-18.118061
-17.956669
-18.118061
-18.277296
-18.434878
-18.277296
-18.434878
-18.590457
-18.744124
-18.590457
-18.744124
-18.895569
-19.044992
-18.895569
-19.044992
-19.192271
-19.337294
-19.192271
-19.337294
-19.479944
-19.620654
-19.479944
-19.620654
-19.758588
-19.894441
-19.758588
-19.894441
-20.027565
-20.158447
-20.027565
-20.158447
-20.286406
-20.411570
-20.286406
-20.411570
-20.534244
-20.653830
-20.534244
-20.653830
-20.770453
-20.883667
-20.770453
-20.883667
-20.994421
-21.101959
-20.994421
-21.101959
-21.205906
-21.306481
-21.205906
-21.306481
-21.403396
-21.497005
-21.403396
-21.497005
-21.586373
-21.671643
-21.586373
-21.671643
-21.752982
-21.830264
-21.752982
-21.830264
-21.903205
-21.971351
-21.903205
-21.971351
-22.034932
-22.092691
-22.034932
-22.092691
-22.145510
-22.192489
-22.145510
-22.192489
-22.234594
-22.270253
-22.234594
-22.270253
-22.300132
-22.322025
-22.300132
-22.322025
-22.338556
-22.348275
-22.338556
-22.348275

