# vtk DataFile Version 2.0
MATLAB generated vtk file, WMC
ASCII
DATASET UNSTRUCTURED_GRID
POINTS 256 double
0.195312 0.059854 0.000000 
0.195312 0.179562 0.000000 
0.585938 0.059854 0.000000 
0.585938 0.179562 0.000000 
0.195312 0.299436 0.000000 
0.195312 0.419853 0.000000 
0.585938 0.299436 0.000000 
0.585938 0.419853 0.000000 
0.195312 0.540802 0.000000 
0.195312 0.662391 0.000000 
0.585938 0.540802 0.000000 
0.585938 0.662391 0.000000 
0.195312 0.784591 0.000000 
0.195312 0.907342 0.000000 
0.585938 0.784591 0.000000 
0.585938 0.907342 0.000000 
0.195312 1.030564 0.000000 
0.195312 1.154333 0.000000 
0.585938 1.030564 0.000000 
0.585938 1.154333 0.000000 
0.195312 1.278656 0.000000 
0.195312 1.403574 0.000000 
0.585938 1.278656 0.000000 
0.585938 1.403574 0.000000 
0.195312 1.529090 0.000000 
0.195312 1.655217 0.000000 
0.585938 1.529090 0.000000 
0.585938 1.655217 0.000000 
0.195312 1.781875 0.000000 
0.195312 1.909116 0.000000 
0.585938 1.781875 0.000000 
0.585938 1.909116 0.000000 
0.195312 2.036942 0.000000 
0.195312 2.165381 0.000000 
0.585938 2.036942 0.000000 
0.585938 2.165381 0.000000 
0.195312 2.294448 0.000000 
0.195312 2.424142 0.000000 
0.585938 2.294448 0.000000 
0.585938 2.424142 0.000000 
0.195312 2.554463 0.000000 
0.195312 2.685407 0.000000 
0.585938 2.554463 0.000000 
0.585938 2.685407 0.000000 
0.195312 2.817000 0.000000 
0.195312 2.949234 0.000000 
0.585938 2.817000 0.000000 
0.585938 2.949234 0.000000 
0.195312 3.082154 0.000000 
0.195312 3.215750 0.000000 
0.585938 3.082154 0.000000 
0.585938 3.215750 0.000000 
0.195312 3.350019 0.000000 
0.195312 3.484917 0.000000 
0.585938 3.350019 0.000000 
0.585938 3.484917 0.000000 
0.195312 3.620545 0.000000 
0.195312 3.756887 0.000000 
0.585938 3.620545 0.000000 
0.585938 3.756887 0.000000 
0.195312 3.893937 0.000000 
0.195312 4.031704 0.000000 
0.585938 3.893937 0.000000 
0.585938 4.031704 0.000000 
0.195312 4.170180 0.000000 
0.195312 4.309424 0.000000 
0.585938 4.170180 0.000000 
0.585938 4.309424 0.000000 
0.195312 4.449339 0.000000 
0.195312 4.590090 0.000000 
0.585938 4.449339 0.000000 
0.585938 4.590090 0.000000 
0.195312 4.731599 0.000000 
0.195312 4.873914 0.000000 
0.585938 4.731599 0.000000 
0.585938 4.873914 0.000000 
0.195312 5.016972 0.000000 
0.195312 5.160839 0.000000 
0.585938 5.016972 0.000000 
0.585938 5.160839 0.000000 
0.195312 5.305566 0.000000 
0.195312 5.451038 0.000000 
0.585938 5.305566 0.000000 
0.585938 5.451038 0.000000 
0.195312 5.597425 0.000000 
0.195312 5.744554 0.000000 
0.585938 5.597425 0.000000 
0.585938 5.744554 0.000000 
0.195312 5.892643 0.000000 
0.195312 6.041560 0.000000 
0.585938 5.892643 0.000000 
0.585938 6.041560 0.000000 
0.195312 6.191407 0.000000 
0.195312 6.342155 0.000000 
0.585938 6.191407 0.000000 
0.585938 6.342155 0.000000 
0.195312 6.493771 0.000000 
0.195312 6.646370 0.000000 
0.585938 6.493771 0.000000 
0.585938 6.646370 0.000000 
0.195312 6.799851 0.000000 
0.195312 6.954301 0.000000 
0.585938 6.799851 0.000000 
0.585938 6.954301 0.000000 
0.195312 7.109811 0.000000 
0.195312 7.266177 0.000000 
0.585938 7.109811 0.000000 
0.585938 7.266177 0.000000 
0.195312 7.423665 0.000000 
0.195312 7.582104 0.000000 
0.585938 7.423665 0.000000 
0.585938 7.582104 0.000000 
0.195312 7.741615 0.000000 
0.195312 7.902172 0.000000 
0.585938 7.741615 0.000000 
0.585938 7.902172 0.000000 
0.195312 8.063797 0.000000 
0.195312 8.226485 0.000000 
0.585938 8.063797 0.000000 
0.585938 8.226485 0.000000 
0.195312 8.390344 0.000000 
0.195312 8.555375 0.000000 
0.585938 8.390344 0.000000 
0.585938 8.555375 0.000000 
0.195312 8.721433 0.000000 
0.195312 8.888696 0.000000 
0.585938 8.721433 0.000000 
0.585938 8.888696 0.000000 
0.195312 9.057207 0.000000 
0.195312 9.226803 0.000000 
0.585938 9.057207 0.000000 
0.585938 9.226803 0.000000 
0.195312 9.397777 0.000000 
0.195312 9.569932 0.000000 
0.585938 9.397777 0.000000 
0.585938 9.569932 0.000000 
0.195312 9.743339 0.000000 
0.195312 9.918233 0.000000 
0.585938 9.743339 0.000000 
0.585938 9.918233 0.000000 
0.195312 10.094320 0.000000 
0.195312 10.271838 0.000000 
0.585938 10.094320 0.000000 
0.585938 10.271838 0.000000 
0.195312 10.450634 0.000000 
0.195312 10.630842 0.000000 
0.585938 10.450634 0.000000 
0.585938 10.630842 0.000000 
0.195312 10.812482 0.000000 
0.195312 10.995650 0.000000 
0.585938 10.812482 0.000000 
0.585938 10.995650 0.000000 
0.195312 11.180346 0.000000 
0.195312 11.366611 0.000000 
0.585938 11.180346 0.000000 
0.585938 11.366611 0.000000 
0.195312 11.554375 0.000000 
0.195312 11.743867 0.000000 
0.585938 11.554375 0.000000 
0.585938 11.743867 0.000000 
0.195312 11.934903 0.000000 
0.195312 12.127646 0.000000 
0.585938 11.934903 0.000000 
0.585938 12.127646 0.000000 
0.195312 12.322002 0.000000 
0.195312 12.518164 0.000000 
0.585938 12.322002 0.000000 
0.585938 12.518164 0.000000 
0.195312 12.716215 0.000000 
0.195312 12.915933 0.000000 
0.585938 12.716215 0.000000 
0.585938 12.915933 0.000000 
0.195312 13.117748 0.000000 
0.195312 13.321377 0.000000 
0.585938 13.117748 0.000000 
0.585938 13.321377 0.000000 
0.195312 13.527019 0.000000 
0.195312 13.734642 0.000000 
0.585938 13.527019 0.000000 
0.585938 13.734642 0.000000 
0.195312 13.944590 0.000000 
0.195312 14.156617 0.000000 
0.585938 13.944590 0.000000 
0.585938 14.156617 0.000000 
0.195312 14.370765 0.000000 
0.195312 14.587071 0.000000 
0.585938 14.370765 0.000000 
0.585938 14.587071 0.000000 
0.195312 14.805736 0.000000 
0.195312 15.026605 0.000000 
0.585938 14.805736 0.000000 
0.585938 15.026605 0.000000 
0.195312 15.250217 0.000000 
0.195312 15.476412 0.000000 
0.585938 15.250217 0.000000 
0.585938 15.476412 0.000000 
0.195312 15.705301 0.000000 
0.195312 15.936590 0.000000 
0.585938 15.705301 0.000000 
0.585938 15.936590 0.000000 
0.195312 16.170722 0.000000 
0.195312 16.407987 0.000000 
0.585938 16.170722 0.000000 
0.585938 16.407987 0.000000 
0.195312 16.648046 0.000000 
0.195312 16.891291 0.000000 
0.585938 16.648046 0.000000 
0.585938 16.891291 0.000000 
0.195312 17.137604 0.000000 
0.195312 17.387390 0.000000 
0.585938 17.137604 0.000000 
0.585938 17.387390 0.000000 
0.195312 17.640355 0.000000 
0.195312 17.896935 0.000000 
0.585938 17.640355 0.000000 
0.585938 17.896935 0.000000 
0.195312 18.157282 0.000000 
0.195312 18.421291 0.000000 
0.585938 18.157282 0.000000 
0.585938 18.421291 0.000000 
0.195312 18.689533 0.000000 
0.195312 18.961612 0.000000 
0.585938 18.689533 0.000000 
0.585938 18.961612 0.000000 
0.195312 19.238053 0.000000 
0.195312 19.519045 0.000000 
0.585938 19.238053 0.000000 
0.585938 19.519045 0.000000 
0.195312 19.804871 0.000000 
0.195312 20.095770 0.000000 
0.585938 19.804871 0.000000 
0.585938 20.095770 0.000000 
0.195312 20.391809 0.000000 
0.195312 20.693830 0.000000 
0.585938 20.391809 0.000000 
0.585938 20.693830 0.000000 
0.195312 21.001416 0.000000 
0.195312 21.315053 0.000000 
0.585938 21.001416 0.000000 
0.585938 21.315053 0.000000 
0.195312 21.633977 0.000000 
0.195312 21.960999 0.000000 
0.585938 21.633977 0.000000 
0.585938 21.960999 0.000000 
0.195312 22.295336 0.000000 
0.195312 22.637635 0.000000 
0.585938 22.295336 0.000000 
0.585938 22.637635 0.000000 
0.195312 22.986816 0.000000 
0.195312 23.349004 0.000000 
0.585938 22.986816 0.000000 
0.585938 23.349004 0.000000 
0.195312 23.717684 0.000000 
0.195312 24.086741 0.000000 
0.585938 23.717684 0.000000 
0.585938 24.086741 0.000000 

POINT_DATA 256
SCALARS sigma_xx FLOAT 1
LOOKUP_TABLE default
0.000000
0.000000
0.000000
0.000000
-0.000000
-0.000000
-0.000000
-0.000000
-0.000000
-0.000000
-0.000000
-0.000000
-0.000000
-0.000000
-0.000000
0.000000
-0.000000
-0.000000
-0.000000
-0.000000
-0.000000
-0.000000
-0.000000
-0.000000
-0.000000
-0.000000
-0.000000
-0.000000
-0.000000
-0.000000
-0.000000
-0.000000
-0.000000
-0.000000
-0.000000
-0.000000
-0.000000
-0.000000
-0.000000
-0.000000
-0.000000
-0.000000
-0.000000
-0.000000
-0.000000
-0.000000
-0.000000
0.000000
-0.000000
-0.000000
-0.000000
-0.000000
-0.000000
-0.000000
-0.000000
-0.000000
-0.000000
0.000000
-0.000000
0.000000
-0.000000
-0.000000
-0.000000
-0.000000
-0.000000
-0.000000
-0.000000
-0.000000
-0.000000
-0.000000
-0.000000
-0.000000
-0.000000
-0.000000
-0.000000
-0.000000
-0.000000
-0.000000
-0.000000
-0.000000
0.000000
-0.000000
0.000000
-0.000000
0.000000
-0.000000
0.000000
-0.000000
-0.000000
-0.000000
-0.000000
-0.000000
-0.000000
-0.000000
-0.000000
-0.000000
-0.000000
-0.000000
-0.000000
-0.000000
-0.000000
-0.000000
-0.000000
-0.000000
-0.000000
-0.000000
-0.000000
-0.000000
-0.000000
-0.000000
-0.000000
-0.000000
-0.000000
-0.000000
-0.000000
-0.000000
-0.000000
-0.000000
-0.000000
-0.000000
-0.000000
-0.000000
-0.000000
-0.000000
-0.000000
-0.000000
-0.000000
-0.000000
-0.000000
-0.000000
-0.000000
-0.000000
-0.000000
-0.000000
-0.000000
-0.000000
-0.000000
-0.000000
-0.000000
-0.000000
-0.000000
-0.000000
-0.000000
-0.000000
-0.000000
-0.000000
-0.000000
-0.000000
-0.000000
0.000000
-0.000000
-0.000000
-0.000000
-0.000000
-0.000000
-0.000000
-0.000000
-0.000000
-0.000000
-0.000000
-0.000000
-0.000000
-0.000000
-0.000000
-0.000000
-0.000000
-0.000000
0.000000
-0.000000
-0.000000
-0.000000
-0.000000
-0.000000
-0.000000
-0.000000
-0.000000
-0.000000
-0.000000
-0.000000
-0.000000
-0.000000
-0.000000
0.000000
-0.000000
-0.000000
-0.000000
-0.000000
-0.000000
-0.000000
-0.000000
-0.000000
-0.000000
-0.000000
-0.000000
-0.000000
-0.000000
-0.000000
-0.000000
-0.000000
-0.000000
-0.000000
-0.000000
-0.000000
-0.000000
-0.000000
-0.000000
0.000000
-0.000000
-0.000000
-0.000000
-0.000000
-0.000000
-0.000000
0.000000
-0.000000
-0.000000
-0.000000
-0.000000
-0.000000
-0.000000
-0.000000
-0.000000
-0.000000
0.000000
-0.000000
-0.000000
-0.000000
-0.000000
-0.000000
-0.000000
-0.000000
-0.000000
0.000000
-0.000000
0.000000
0.000000
-0.000000
-0.000000
-0.000000
-0.000000
-0.000000
-0.000000
-0.000000
-0.000000
-0.000000
-0.000000
-0.000000
-0.000000
-0.000000
0.000000
-0.000000
0.000000
-0.000000
0.000000
-0.000000
0.000000

SCALARS sigma_yy FLOAT 1
LOOKUP_TABLE default
-38592.851756
-38592.851756
-38592.851756
-38592.851756
-38334.653572
-38036.351527
-38334.653572
-38036.351527
-37668.473632
-37334.791103
-37668.473632
-37334.791103
-36961.964865
-36721.746131
-36961.964865
-36721.746131
-36418.914678
-36132.975095
-36418.914678
-36132.975095
-35804.307364
-35506.113363
-35804.307364
-35506.113363
-35156.523846
-34881.334617
-35156.523846
-34881.334617
-34578.650294
-34294.036145
-34578.650294
-34294.036145
-33967.490219
-33686.150813
-33967.490219
-33686.150813
-33346.703423
-33074.516934
-33346.703423
-33074.516934
-32746.478048
-32461.317566
-32746.478048
-32461.317566
-32127.334321
-31860.111354
-32127.334321
-31860.111354
-31514.256624
-31235.199567
-31514.256624
-31235.199567
-30912.114947
-30638.317090
-30912.114947
-30638.317090
-30300.790897
-30018.777086
-30300.790897
-30018.777086
-29679.361204
-29415.518821
-29679.361204
-29415.518821
-29099.418093
-28792.681379
-29099.418093
-28792.681379
-28496.188915
-28190.816308
-28496.188915
-28190.816308
-27869.042762
-27570.500292
-27869.042762
-27570.500292
-27271.725645
-26973.798024
-27271.725645
-26973.798024
-26639.862131
-26371.909688
-26639.862131
-26371.909688
-26051.969423
-25767.694988
-26051.969423
-25767.694988
-25420.079534
-25152.046549
-25420.079534
-25152.046549
-24809.941085
-24534.401689
-24809.941085
-24534.401689
-24223.455052
-23918.975986
-24223.455052
-23918.975986
-23619.044138
-23306.358767
-23619.044138
-23306.358767
-22991.145547
-22715.133716
-22991.145547
-22715.133716
-22387.597845
-22100.892865
-22387.597845
-22100.892865
-21771.426643
-21486.619282
-21771.426643
-21486.619282
-21168.587574
-20879.855958
-21168.587574
-20879.855958
-20544.101411
-20265.252089
-20544.101411
-20265.252089
-19953.182025
-19667.902270
-19953.182025
-19667.902270
-19335.710230
-19070.008896
-19335.710230
-19070.008896
-18714.752245
-18449.775185
-18714.752245
-18449.775185
-18110.983363
-17821.892839
-18110.983363
-17821.892839
-17511.003331
-17219.523096
-17511.003331
-17219.523096
-16917.044747
-16620.700394
-16917.044747
-16620.700394
-16307.883245
-16007.638856
-16307.883245
-16007.638856
-15676.240086
-15386.435929
-15676.240086
-15386.435929
-15082.583865
-14757.182265
-15082.583865
-14757.182265
-14483.415510
-14172.362288
-14483.415510
-14172.362288
-13871.946689
-13556.249483
-13871.946689
-13556.249483
-13261.896157
-12946.960560
-13261.896157
-12946.960560
-12640.283158
-12342.282121
-12640.283158
-12342.282121
-12036.677717
-11720.841761
-12036.677717
-11720.841761
-11410.116108
-11105.280750
-11410.116108
-11105.280750
-10823.639224
-10524.008942
-10823.639224
-10524.008942
-10219.207547
-9923.551057
-10219.207547
-9923.551057
-9578.241502
-9289.210350
-9578.241502
-9289.210350
-8974.591473
-8707.405527
-8974.591473
-8707.405527
-8365.854971
-8067.956718
-8365.854971
-8067.956718
-7764.905984
-7463.321563
-7764.905984
-7463.321563
-7156.470701
-6847.977327
-7156.470701
-6847.977327
-6547.726620
-6248.959656
-6547.726620
-6248.959656
-5943.890558
-5636.914518
-5943.890558
-5636.914518
-5322.637813
-5045.621751
-5322.637813
-5045.621751
-4735.482624
-4426.065140
-4735.482624
-4426.065140
-4112.617892
-3813.754494
-4112.617892
-3813.754494
-3483.773361
-3189.052584
-3483.773361
-3189.052584
-2874.264737
-2622.646238
-2874.264737
-2622.646238
-2310.443033
-1967.115756
-2310.443033
-1967.115756
-1656.054831
-1388.078932
-1656.054831
-1388.078932
-1064.611752
-650.638425
-1064.611752
-650.638425
-571.877434
-116.171231
-571.877434
-116.171231

SCALARS sigma_zz FLOAT 1
LOOKUP_TABLE default
0.000000
0.000000
0.000000
0.000000
0.000000
0.000000
0.000000
0.000000
0.000000
0.000000
0.000000
0.000000
0.000000
0.000000
0.000000
0.000000
0.000000
0.000000
0.000000
0.000000
0.000000
0.000000
0.000000
0.000000
0.000000
0.000000
0.000000
0.000000
0.000000
0.000000
0.000000
0.000000
0.000000
0.000000
0.000000
0.000000
0.000000
0.000000
0.000000
0.000000
0.000000
0.000000
0.000000
0.000000
0.000000
0.000000
0.000000
0.000000
0.000000
0.000000
0.000000
0.000000
0.000000
0.000000
0.000000
0.000000
0.000000
0.000000
0.000000
0.000000
0.000000
0.000000
0.000000
0.000000
0.000000
0.000000
0.000000
0.000000
0.000000
0.000000
0.000000
0.000000
0.000000
0.000000
0.000000
0.000000
0.000000
0.000000
0.000000
0.000000
0.000000
0.000000
0.000000
0.000000
0.000000
0.000000
0.000000
0.000000
0.000000
0.000000
0.000000
0.000000
0.000000
0.000000
0.000000
0.000000
0.000000
0.000000
0.000000
0.000000
0.000000
0.000000
0.000000
0.000000
0.000000
0.000000
0.000000
0.000000
0.000000
0.000000
0.000000
0.000000
0.000000
0.000000
0.000000
0.000000
0.000000
0.000000
0.000000
0.000000
0.000000
0.000000
0.000000
0.000000
0.000000
0.000000
0.000000
0.000000
0.000000
0.000000
0.000000
0.000000
0.000000
0.000000
0.000000
0.000000
0.000000
0.000000
0.000000
0.000000
0.000000
0.000000
0.000000
0.000000
0.000000
0.000000
0.000000
0.000000
0.000000
0.000000
0.000000
0.000000
0.000000
0.000000
0.000000
0.000000
0.000000
0.000000
0.000000
0.000000
0.000000
0.000000
0.000000
0.000000
0.000000
0.000000
0.000000
0.000000
0.000000
0.000000
0.000000
0.000000
0.000000
0.000000
0.000000
0.000000
0.000000
0.000000
0.000000
0.000000
0.000000
0.000000
0.000000
0.000000
0.000000
0.000000
0.000000
0.000000
0.000000
0.000000
0.000000
0.000000
0.000000
0.000000
0.000000
0.000000
0.000000
0.000000
0.000000
0.000000
0.000000
0.000000
0.000000
0.000000
0.000000
0.000000
0.000000
0.000000
0.000000
0.000000
0.000000
0.000000
0.000000
0.000000
0.000000
0.000000
0.000000
0.000000
0.000000
0.000000
0.000000
0.000000
0.000000
0.000000
0.000000
0.000000
0.000000
0.000000
0.000000
0.000000
0.000000
0.000000
0.000000
0.000000
0.000000
0.000000
0.000000
0.000000
0.000000
0.000000
0.000000
0.000000
0.000000
0.000000
0.000000
0.000000
0.000000
0.000000
0.000000
0.000000
0.000000
0.000000
0.000000
0.000000
0.000000
0.000000

SCALARS sigma_xy FLOAT 1
LOOKUP_TABLE default
0.000000
0.000000
0.000000
0.000000
-0.000000
-0.000000
-0.000000
-0.000000
-0.000000
-0.000000
-0.000000
-0.000000
-0.000000
0.000000
-0.000000
0.000000
0.000000
0.000000
0.000000
0.000000
0.000000
0.000000
0.000000
0.000000
0.000000
0.000000
0.000000
0.000000
0.000000
0.000000
0.000000
0.000000
-0.000000
-0.000000
-0.000000
-0.000000
-0.000000
-0.000000
-0.000000
-0.000000
0.000000
0.000000
0.000000
0.000000
0.000000
0.000000
0.000000
0.000000
-0.000000
-0.000000
-0.000000
-0.000000
-0.000000
-0.000000
-0.000000
-0.000000
-0.000000
0.000000
-0.000000
0.000000
0.000000
0.000000
0.000000
0.000000
0.000000
0.000000
0.000000
0.000000
0.000000
-0.000000
0.000000
-0.000000
-0.000000
0.000000
-0.000000
0.000000
-0.000000
-0.000000
-0.000000
-0.000000
0.000000
-0.000000
0.000000
-0.000000
0.000000
-0.000000
0.000000
-0.000000
-0.000000
-0.000000
-0.000000
-0.000000
-0.000000
-0.000000
-0.000000
-0.000000
-0.000000
0.000000
-0.000000
0.000000
0.000000
0.000000
0.000000
0.000000
0.000000
0.000000
0.000000
0.000000
-0.000000
0.000000
-0.000000
0.000000
0.000000
0.000000
0.000000
0.000000
0.000000
0.000000
0.000000
0.000000
-0.000000
-0.000000
-0.000000
-0.000000
-0.000000
-0.000000
-0.000000
-0.000000
-0.000000
-0.000000
-0.000000
-0.000000
0.000000
-0.000000
0.000000
-0.000000
0.000000
0.000000
0.000000
0.000000
0.000000
0.000000
0.000000
0.000000
-0.000000
-0.000000
-0.000000
-0.000000
0.000000
0.000000
0.000000
0.000000
0.000000
0.000000
0.000000
0.000000
-0.000000
-0.000000
-0.000000
-0.000000
-0.000000
-0.000000
-0.000000
-0.000000
-0.000000
-0.000000
-0.000000
0.000000
-0.000000
0.000000
-0.000000
0.000000
0.000000
0.000000
0.000000
0.000000
-0.000000
-0.000000
-0.000000
-0.000000
-0.000000
0.000000
0.000000
0.000000
0.000000
-0.000000
0.000000
-0.000000
0.000000
-0.000000
0.000000
-0.000000
0.000000
-0.000000
0.000000
-0.000000
0.000000
-0.000000
0.000000
-0.000000
0.000000
-0.000000
0.000000
-0.000000
0.000000
-0.000000
0.000000
-0.000000
0.000000
0.000000
0.000000
0.000000
-0.000000
0.000000
-0.000000
0.000000
-0.000000
0.000000
-0.000000
0.000000
-0.000000
-0.000000
-0.000000
0.000000
-0.000000
-0.000000
-0.000000
-0.000000
-0.000000
-0.000000
-0.000000
-0.000000
0.000000
-0.000000
0.000000
0.000000
0.000000
0.000000
0.000000
0.000000
0.000000
0.000000
0.000000
0.000000
-0.000000
-0.000000
-0.000000
-0.000000
-0.000000
0.000000
-0.000000
0.000000
-0.000000
0.000000
-0.000000
0.000000

SCALARS sigma_yz FLOAT 1
LOOKUP_TABLE default
0.000000
0.000000
0.000000
0.000000
0.000000
0.000000
0.000000
0.000000
0.000000
0.000000
0.000000
0.000000
0.000000
0.000000
0.000000
0.000000
0.000000
0.000000
0.000000
0.000000
0.000000
0.000000
0.000000
0.000000
0.000000
0.000000
0.000000
0.000000
0.000000
0.000000
0.000000
0.000000
0.000000
0.000000
0.000000
0.000000
0.000000
0.000000
0.000000
0.000000
0.000000
0.000000
0.000000
0.000000
0.000000
0.000000
0.000000
0.000000
0.000000
0.000000
0.000000
0.000000
0.000000
0.000000
0.000000
0.000000
0.000000
0.000000
0.000000
0.000000
0.000000
0.000000
0.000000
0.000000
0.000000
0.000000
0.000000
0.000000
0.000000
0.000000
0.000000
0.000000
0.000000
0.000000
0.000000
0.000000
0.000000
0.000000
0.000000
0.000000
0.000000
0.000000
0.000000
0.000000
0.000000
0.000000
0.000000
0.000000
0.000000
0.000000
0.000000
0.000000
0.000000
0.000000
0.000000
0.000000
0.000000
0.000000
0.000000
0.000000
0.000000
0.000000
0.000000
0.000000
0.000000
0.000000
0.000000
0.000000
0.000000
0.000000
0.000000
0.000000
0.000000
0.000000
0.000000
0.000000
0.000000
0.000000
0.000000
0.000000
0.000000
0.000000
0.000000
0.000000
0.000000
0.000000
0.000000
0.000000
0.000000
0.000000
0.000000
0.000000
0.000000
0.000000
0.000000
0.000000
0.000000
0.000000
0.000000
0.000000
0.000000
0.000000
0.000000
0.000000
0.000000
0.000000
0.000000
0.000000
0.000000
0.000000
0.000000
0.000000
0.000000
0.000000
0.000000
0.000000
0.000000
0.000000
0.000000
0.000000
0.000000
0.000000
0.000000
0.000000
0.000000
0.000000
0.000000
0.000000
0.000000
0.000000
0.000000
0.000000
0.000000
0.000000
0.000000
0.000000
0.000000
0.000000
0.000000
0.000000
0.000000
0.000000
0.000000
0.000000
0.000000
0.000000
0.000000
0.000000
0.000000
0.000000
0.000000
0.000000
0.000000
0.000000
0.000000
0.000000
0.000000
0.000000
0.000000
0.000000
0.000000
0.000000
0.000000
0.000000
0.000000
0.000000
0.000000
0.000000
0.000000
0.000000
0.000000
0.000000
0.000000
0.000000
0.000000
0.000000
0.000000
0.000000
0.000000
0.000000
0.000000
0.000000
0.000000
0.000000
0.000000
0.000000
0.000000
0.000000
0.000000
0.000000
0.000000
0.000000
0.000000
0.000000
0.000000
0.000000
0.000000
0.000000
0.000000
0.000000
0.000000
0.000000
0.000000
0.000000
0.000000
0.000000
0.000000
0.000000
0.000000
0.000000
0.000000
0.000000
0.000000
0.000000
0.000000
0.000000

SCALARS sigma_zx FLOAT 1
LOOKUP_TABLE default
0.000000
0.000000
0.000000
0.000000
0.000000
0.000000
0.000000
0.000000
0.000000
0.000000
0.000000
0.000000
0.000000
0.000000
0.000000
0.000000
0.000000
0.000000
0.000000
0.000000
0.000000
0.000000
0.000000
0.000000
0.000000
0.000000
0.000000
0.000000
0.000000
0.000000
0.000000
0.000000
0.000000
0.000000
0.000000
0.000000
0.000000
0.000000
0.000000
0.000000
0.000000
0.000000
0.000000
0.000000
0.000000
0.000000
0.000000
0.000000
0.000000
0.000000
0.000000
0.000000
0.000000
0.000000
0.000000
0.000000
0.000000
0.000000
0.000000
0.000000
0.000000
0.000000
0.000000
0.000000
0.000000
0.000000
0.000000
0.000000
0.000000
0.000000
0.000000
0.000000
0.000000
0.000000
0.000000
0.000000
0.000000
0.000000
0.000000
0.000000
0.000000
0.000000
0.000000
0.000000
0.000000
0.000000
0.000000
0.000000
0.000000
0.000000
0.000000
0.000000
0.000000
0.000000
0.000000
0.000000
0.000000
0.000000
0.000000
0.000000
0.000000
0.000000
0.000000
0.000000
0.000000
0.000000
0.000000
0.000000
0.000000
0.000000
0.000000
0.000000
0.000000
0.000000
0.000000
0.000000
0.000000
0.000000
0.000000
0.000000
0.000000
0.000000
0.000000
0.000000
0.000000
0.000000
0.000000
0.000000
0.000000
0.000000
0.000000
0.000000
0.000000
0.000000
0.000000
0.000000
0.000000
0.000000
0.000000
0.000000
0.000000
0.000000
0.000000
0.000000
0.000000
0.000000
0.000000
0.000000
0.000000
0.000000
0.000000
0.000000
0.000000
0.000000
0.000000
0.000000
0.000000
0.000000
0.000000
0.000000
0.000000
0.000000
0.000000
0.000000
0.000000
0.000000
0.000000
0.000000
0.000000
0.000000
0.000000
0.000000
0.000000
0.000000
0.000000
0.000000
0.000000
0.000000
0.000000
0.000000
0.000000
0.000000
0.000000
0.000000
0.000000
0.000000
0.000000
0.000000
0.000000
0.000000
0.000000
0.000000
0.000000
0.000000
0.000000
0.000000
0.000000
0.000000
0.000000
0.000000
0.000000
0.000000
0.000000
0.000000
0.000000
0.000000
0.000000
0.000000
0.000000
0.000000
0.000000
0.000000
0.000000
0.000000
0.000000
0.000000
0.000000
0.000000
0.000000
0.000000
0.000000
0.000000
0.000000
0.000000
0.000000
0.000000
0.000000
0.000000
0.000000
0.000000
0.000000
0.000000
0.000000
0.000000
0.000000
0.000000
0.000000
0.000000
0.000000
0.000000
0.000000
0.000000
0.000000
0.000000
0.000000
0.000000
0.000000
0.000000
0.000000
0.000000
0.000000
0.000000
0.000000
0.000000
0.000000
0.000000

SCALARS u_x FLOAT 1
LOOKUP_TABLE default
0.000000
0.000000
0.000000
0.000000
0.000000
0.000000
0.000000
0.000000
0.000000
0.000000
0.000000
0.000000
0.000000
0.000000
0.000000
0.000000
0.000000
0.000000
0.000000
0.000000
0.000000
0.000000
0.000000
0.000000
0.000000
0.000000
0.000000
0.000000
0.000000
0.000000
0.000000
0.000000
0.000000
0.000000
0.000000
0.000000
0.000000
0.000000
0.000000
0.000000
0.000000
0.000000
0.000000
0.000000
0.000000
0.000000
0.000000
0.000000
0.000000
0.000000
0.000000
0.000000
0.000000
0.000000
0.000000
0.000000
0.000000
0.000000
0.000000
0.000000
0.000000
0.000000
0.000000
0.000000
0.000000
0.000000
0.000000
0.000000
0.000000
0.000000
0.000000
0.000000
0.000000
0.000000
0.000000
0.000000
0.000000
0.000000
0.000000
0.000000
0.000000
0.000000
0.000000
0.000000
0.000000
0.000000
0.000000
0.000000
0.000000
0.000000
0.000000
0.000000
0.000000
0.000000
0.000000
0.000000
0.000000
0.000000
0.000000
0.000000
0.000000
0.000000
0.000000
0.000000
0.000000
0.000000
0.000000
0.000000
0.000000
0.000000
0.000000
0.000000
0.000000
0.000000
0.000000
0.000000
0.000000
0.000000
0.000000
0.000000
0.000000
0.000000
0.000000
0.000000
0.000000
0.000000
0.000000
0.000000
0.000000
0.000000
0.000000
0.000000
0.000000
0.000000
0.000000
0.000000
0.000000
0.000000
0.000000
0.000000
0.000000
0.000000
0.000000
0.000000
0.000000
0.000000
0.000000
0.000000
0.000000
0.000000
0.000000
0.000000
0.000000
0.000000
0.000000
0.000000
0.000000
0.000000
0.000000
0.000000
0.000000
0.000000
0.000000
0.000000
0.000000
0.000000
0.000000
0.000000
0.000000
0.000000
0.000000
0.000000
0.000000
0.000000
0.000000
0.000000
0.000000
0.000000
0.000000
0.000000
0.000000
0.000000
0.000000
0.000000
0.000000
0.000000
0.000000
0.000000
0.000000
0.000000
0.000000
0.000000
0.000000
0.000000
0.000000
0.000000
0.000000
0.000000
0.000000
0.000000
0.000000
0.000000
0.000000
0.000000
0.000000
0.000000
0.000000
0.000000
0.000000
0.000000
0.000000
0.000000
0.000000
0.000000
0.000000
0.000000
0.000000
0.000000
0.000000
0.000000
0.000000
0.000000
0.000000
0.000000
0.000000
0.000000
0.000000
0.000000
0.000000
0.000000
0.000000
0.000000
0.000000
0.000000
0.000000
0.000000
0.000000
0.000000
0.000000
0.000000
0.000000
0.000000
0.000000
0.000000
0.000000
0.000000
0.000000
0.000000
0.000000
0.000000
0.000000
0.000000
0.000000
0.000000
0.000000
0.000000

SCALARS u_y FLOAT 1
LOOKUP_TABLE default
-0.135458
-0.406375
-0.135458
-0.406375
-0.677127
-0.947335
-0.677127
-0.947335
-1.217010
-1.486047
-1.217010
-1.486047
-1.754472
-2.022346
-1.754472
-2.022346
-2.289748
-2.556605
-2.289748
-2.556605
-2.822906
-3.088614
-2.822906
-3.088614
-3.353723
-3.618220
-3.353723
-3.618220
-3.882187
-4.145572
-3.882187
-4.145572
-4.408370
-4.670557
-4.408370
-4.670557
-4.932114
-5.193045
-4.932114
-5.193045
-5.453350
-5.713031
-5.453350
-5.713031
-5.972062
-6.230453
-5.972062
-6.230453
-6.488158
-6.745188
-6.488158
-6.745188
-7.001544
-7.257270
-7.001544
-7.257270
-7.512267
-7.766551
-7.512267
-7.766551
-8.020125
-8.272984
-8.020125
-8.272984
-8.525133
-8.776513
-8.525133
-8.776513
-9.027223
-9.277097
-9.027223
-9.277097
-9.526214
-9.774524
-9.526214
-9.774524
-10.022090
-10.268848
-10.022090
-10.268848
-10.514746
-10.759899
-10.514746
-10.759899
-11.004137
-11.247634
-11.004137
-11.247634
-11.490169
-11.731878
-11.490169
-11.731878
-11.972655
-12.212532
-11.972655
-12.212532
-12.451541
-12.689568
-12.451541
-12.689568
-12.926712
-13.162886
-12.926712
-13.162886
-13.398002
-13.632261
-13.398002
-13.632261
-13.865397
-14.097583
-13.865397
-14.097583
-14.328698
-14.558765
-14.328698
-14.558765
-14.787766
-15.015703
-14.787766
-15.015703
-15.242468
-15.468063
-15.242468
-15.468063
-15.692629
-15.915991
-15.692629
-15.915991
-16.138105
-16.359134
-16.138105
-16.359134
-16.578786
-16.797256
-16.578786
-16.797256
-17.014473
-17.230204
-17.014473
-17.230204
-17.444742
-17.657849
-17.444742
-17.657849
-17.869679
-18.080096
-17.869679
-18.080096
-18.289081
-18.496538
-18.289081
-18.496538
-18.702467
-18.906827
-18.702467
-18.906827
-19.109687
-19.310821
-19.109687
-19.310821
-19.510409
-19.708292
-19.510409
-19.708292
-19.904560
-20.099023
-19.904560
-20.099023
-20.291598
-20.482504
-20.291598
-20.482504
-20.671315
-20.858310
-20.671315
-20.858310
-21.043294
-21.226295
-21.043294
-21.226295
-21.406972
-21.585571
-21.406972
-21.585571
-21.762048
-21.936367
-21.762048
-21.936367
-22.108327
-22.278082
-22.108327
-22.278082
-22.445095
-22.609526
-22.445095
-22.609526
-22.771261
-22.930598
-22.771261
-22.930598
-23.087090
-23.240451
-23.087090
-23.240451
-23.391016
-23.538396
-23.391016
-23.538396
-23.682709
-23.823548
-23.682709
-23.823548
-23.961207
-24.095252
-23.961207
-24.095252
-24.225530
-24.352146
-24.225530
-24.352146
-24.474530
-24.593076
-24.474530
-24.593076
-24.707259
-24.816893
-24.707259
-24.816893
-24.921692
-25.021417
-24.921692
-25.021417
-25.116003
-25.204607
-25.116003
-25.204607
-25.287646
-25.364635
-25.287646
-25.364635
-25.436335
-25.499938
-25.436335
-25.499938
-25.556226
-25.604553
-25.556226
-25.604553
-25.645997
-25.674434
-25.645997
-25.674434
-25.696378
-25.717946
-25.696378
-25.717946

