# vtk DataFile Version 2.0
MATLAB generated vtk file, WMC
ASCII
DATASET UNSTRUCTURED_GRID
POINTS 256 double
0.195312 0.119957 0.000000 
0.195312 0.359872 0.000000 
0.585938 0.119957 0.000000 
0.585938 0.359872 0.000000 
0.195312 0.600118 0.000000 
0.195312 0.841374 0.000000 
0.585938 0.600118 0.000000 
0.585938 0.841374 0.000000 
0.195312 1.083134 0.000000 
0.195312 1.325520 0.000000 
0.585938 1.083134 0.000000 
0.585938 1.325520 0.000000 
0.195312 1.568598 0.000000 
0.195312 1.812303 0.000000 
0.585938 1.568598 0.000000 
0.585938 1.812303 0.000000 
0.195312 2.056577 0.000000 
0.195312 2.301618 0.000000 
0.585938 2.056577 0.000000 
0.585938 2.301618 0.000000 
0.195312 2.547314 0.000000 
0.195312 2.793617 0.000000 
0.585938 2.547314 0.000000 
0.585938 2.793617 0.000000 
0.195312 3.040578 0.000000 
0.195312 3.288250 0.000000 
0.585938 3.040578 0.000000 
0.585938 3.288250 0.000000 
0.195312 3.536556 0.000000 
0.195312 3.785582 0.000000 
0.585938 3.536556 0.000000 
0.585938 3.785582 0.000000 
0.195312 4.035322 0.000000 
0.195312 4.285684 0.000000 
0.585938 4.035322 0.000000 
0.585938 4.285684 0.000000 
0.195312 4.536775 0.000000 
0.195312 4.788578 0.000000 
0.585938 4.536775 0.000000 
0.585938 4.788578 0.000000 
0.195312 5.041104 0.000000 
0.195312 5.294277 0.000000 
0.585938 5.041104 0.000000 
0.585938 5.294277 0.000000 
0.195312 5.548253 0.000000 
0.195312 5.802866 0.000000 
0.585938 5.548253 0.000000 
0.585938 5.802866 0.000000 
0.195312 6.058330 0.000000 
0.195312 6.314464 0.000000 
0.585938 6.058330 0.000000 
0.585938 6.314464 0.000000 
0.195312 6.571316 0.000000 
0.195312 6.828834 0.000000 
0.585938 6.571316 0.000000 
0.585938 6.828834 0.000000 
0.195312 7.087252 0.000000 
0.195312 7.346458 0.000000 
0.585938 7.087252 0.000000 
0.585938 7.346458 0.000000 
0.195312 7.606346 0.000000 
0.195312 7.867028 0.000000 
0.585938 7.606346 0.000000 
0.585938 7.867028 0.000000 
0.195312 8.128379 0.000000 
0.195312 8.390692 0.000000 
0.585938 8.128379 0.000000 
0.585938 8.390692 0.000000 
0.195312 8.653568 0.000000 
0.195312 8.917443 0.000000 
0.585938 8.653568 0.000000 
0.585938 8.917443 0.000000 
0.195312 9.181980 0.000000 
0.195312 9.447469 0.000000 
0.585938 9.181980 0.000000 
0.585938 9.447469 0.000000 
0.195312 9.713640 0.000000 
0.195312 9.980674 0.000000 
0.585938 9.713640 0.000000 
0.585938 9.980674 0.000000 
0.195312 10.248655 0.000000 
0.195312 10.517224 0.000000 
0.585938 10.248655 0.000000 
0.585938 10.517224 0.000000 
0.195312 10.786942 0.000000 
0.195312 11.057259 0.000000 
0.585938 10.786942 0.000000 
0.585938 11.057259 0.000000 
0.195312 11.328634 0.000000 
0.195312 11.600716 0.000000 
0.585938 11.328634 0.000000 
0.585938 11.600716 0.000000 
0.195312 11.873714 0.000000 
0.195312 12.147690 0.000000 
0.585938 11.873714 0.000000 
0.585938 12.147690 0.000000 
0.195312 12.422420 0.000000 
0.195312 12.698171 0.000000 
0.585938 12.422420 0.000000 
0.585938 12.698171 0.000000 
0.195312 12.974693 0.000000 
0.195312 13.252192 0.000000 
0.585938 12.974693 0.000000 
0.585938 13.252192 0.000000 
0.195312 13.530647 0.000000 
0.195312 13.809867 0.000000 
0.585938 13.530647 0.000000 
0.585938 13.809867 0.000000 
0.195312 14.090353 0.000000 
0.195312 14.371529 0.000000 
0.585938 14.090353 0.000000 
0.585938 14.371529 0.000000 
0.195312 14.653941 0.000000 
0.195312 14.937162 0.000000 
0.585938 14.653941 0.000000 
0.585938 14.937162 0.000000 
0.195312 15.221147 0.000000 
0.195312 15.506322 0.000000 
0.585938 15.221147 0.000000 
0.585938 15.506322 0.000000 
0.195312 15.792309 0.000000 
0.195312 16.079538 0.000000 
0.585938 15.792309 0.000000 
0.585938 16.079538 0.000000 
0.195312 16.367691 0.000000 
0.195312 16.656765 0.000000 
0.585938 16.367691 0.000000 
0.585938 16.656765 0.000000 
0.195312 16.947127 0.000000 
0.195312 17.238365 0.000000 
0.585938 16.947127 0.000000 
0.585938 17.238365 0.000000 
0.195312 17.530720 0.000000 
0.195312 17.824089 0.000000 
0.585938 17.530720 0.000000 
0.585938 17.824089 0.000000 
0.195312 18.118275 0.000000 
0.195312 18.414027 0.000000 
0.585938 18.118275 0.000000 
0.585938 18.414027 0.000000 
0.195312 18.710563 0.000000 
0.195312 19.008398 0.000000 
0.585938 18.710563 0.000000 
0.585938 19.008398 0.000000 
0.195312 19.307084 0.000000 
0.195312 19.607065 0.000000 
0.585938 19.307084 0.000000 
0.585938 19.607065 0.000000 
0.195312 19.908343 0.000000 
0.195312 20.210715 0.000000 
0.585938 19.908343 0.000000 
0.585938 20.210715 0.000000 
0.195312 20.514162 0.000000 
0.195312 20.818799 0.000000 
0.585938 20.514162 0.000000 
0.585938 20.818799 0.000000 
0.195312 21.124408 0.000000 
0.195312 21.431668 0.000000 
0.585938 21.124408 0.000000 
0.585938 21.431668 0.000000 
0.195312 21.739974 0.000000 
0.195312 22.049548 0.000000 
0.585938 21.739974 0.000000 
0.585938 22.049548 0.000000 
0.195312 22.360186 0.000000 
0.195312 22.672070 0.000000 
0.585938 22.360186 0.000000 
0.585938 22.672070 0.000000 
0.195312 22.985567 0.000000 
0.195312 23.300055 0.000000 
0.585938 22.985567 0.000000 
0.585938 23.300055 0.000000 
0.195312 23.616094 0.000000 
0.195312 23.933162 0.000000 
0.585938 23.616094 0.000000 
0.585938 23.933162 0.000000 
0.195312 24.251776 0.000000 
0.195312 24.571571 0.000000 
0.585938 24.251776 0.000000 
0.585938 24.571571 0.000000 
0.195312 24.892975 0.000000 
0.195312 25.215650 0.000000 
0.585938 24.892975 0.000000 
0.585938 25.215650 0.000000 
0.195312 25.539890 0.000000 
0.195312 25.865379 0.000000 
0.585938 25.539890 0.000000 
0.585938 25.865379 0.000000 
0.195312 26.192403 0.000000 
0.195312 26.520636 0.000000 
0.585938 26.192403 0.000000 
0.585938 26.520636 0.000000 
0.195312 26.850729 0.000000 
0.195312 27.182043 0.000000 
0.585938 26.850729 0.000000 
0.585938 27.182043 0.000000 
0.195312 27.515200 0.000000 
0.195312 27.849701 0.000000 
0.585938 27.515200 0.000000 
0.585938 27.849701 0.000000 
0.195312 28.185794 0.000000 
0.195312 28.523244 0.000000 
0.585938 28.185794 0.000000 
0.585938 28.523244 0.000000 
0.195312 28.862384 0.000000 
0.195312 29.203235 0.000000 
0.585938 28.862384 0.000000 
0.585938 29.203235 0.000000 
0.195312 29.545565 0.000000 
0.195312 29.889804 0.000000 
0.585938 29.545565 0.000000 
0.585938 29.889804 0.000000 
0.195312 30.235567 0.000000 
0.195312 30.583267 0.000000 
0.585938 30.235567 0.000000 
0.585938 30.583267 0.000000 
0.195312 30.932530 0.000000 
0.195312 31.283748 0.000000 
0.585938 30.932530 0.000000 
0.585938 31.283748 0.000000 
0.195312 31.636468 0.000000 
0.195312 31.991237 0.000000 
0.585938 31.636468 0.000000 
0.585938 31.991237 0.000000 
0.195312 32.347664 0.000000 
0.195312 32.706156 0.000000 
0.585938 32.347664 0.000000 
0.585938 32.706156 0.000000 
0.195312 33.066417 0.000000 
0.195312 33.428761 0.000000 
0.585938 33.066417 0.000000 
0.585938 33.428761 0.000000 
0.195312 33.792965 0.000000 
0.195312 34.159280 0.000000 
0.585938 33.792965 0.000000 
0.585938 34.159280 0.000000 
0.195312 34.527533 0.000000 
0.195312 34.897940 0.000000 
0.585938 34.527533 0.000000 
0.585938 34.897940 0.000000 
0.195312 35.270396 0.000000 
0.195312 35.645021 0.000000 
0.585938 35.270396 0.000000 
0.585938 35.645021 0.000000 
0.195312 36.021757 0.000000 
0.195312 36.400760 0.000000 
0.585938 36.021757 0.000000 
0.585938 36.400760 0.000000 
0.195312 36.781952 0.000000 
0.195312 37.165586 0.000000 
0.585938 36.781952 0.000000 
0.585938 37.165586 0.000000 
0.195312 37.550875 0.000000 
0.195312 37.938002 0.000000 
0.585938 37.550875 0.000000 
0.585938 37.938002 0.000000 

POINT_DATA 256
SCALARS sigma_xx FLOAT 1
LOOKUP_TABLE default
0.000000
-0.000000
0.000000
-0.000000
0.000000
-0.000000
0.000000
-0.000000
-0.000000
0.000000
-0.000000
0.000000
0.000000
0.000000
0.000000
0.000000
-0.000000
-0.000000
-0.000000
-0.000000
0.000000
-0.000000
0.000000
-0.000000
-0.000000
-0.000000
-0.000000
-0.000000
-0.000000
0.000000
-0.000000
0.000000
-0.000000
0.000000
-0.000000
0.000000
0.000000
0.000000
0.000000
0.000000
0.000000
0.000000
0.000000
0.000000
0.000000
-0.000000
0.000000
-0.000000
-0.000000
-0.000000
-0.000000
-0.000000
0.000000
0.000000
0.000000
0.000000
0.000000
-0.000000
0.000000
-0.000000
-0.000000
-0.000000
0.000000
-0.000000
-0.000000
0.000000
-0.000000
0.000000
0.000000
-0.000000
0.000000
-0.000000
-0.000000
-0.000000
-0.000000
-0.000000
-0.000000
-0.000000
-0.000000
-0.000000
0.000000
0.000000
0.000000
0.000000
-0.000000
0.000000
-0.000000
0.000000
0.000000
-0.000000
0.000000
-0.000000
0.000000
0.000000
0.000000
0.000000
-0.000000
0.000000
-0.000000
0.000000
0.000000
-0.000000
0.000000
-0.000000
0.000000
-0.000000
0.000000
0.000000
0.000000
0.000000
0.000000
0.000000
-0.000000
0.000000
-0.000000
0.000000
0.000000
-0.000000
0.000000
-0.000000
-0.000000
-0.000000
-0.000000
-0.000000
0.000000
-0.000000
0.000000
0.000000
-0.000000
0.000000
-0.000000
0.000000
-0.000000
0.000000
0.000000
0.000000
0.000000
0.000000
-0.000000
0.000000
-0.000000
-0.000000
-0.000000
-0.000000
-0.000000
0.000000
-0.000000
0.000000
0.000000
-0.000000
-0.000000
-0.000000
-0.000000
-0.000000
-0.000000
-0.000000
-0.000000
0.000000
-0.000000
0.000000
0.000000
0.000000
-0.000000
0.000000
-0.000000
0.000000
-0.000000
0.000000
0.000000
0.000000
0.000000
0.000000
0.000000
-0.000000
0.000000
-0.000000
-0.000000
-0.000000
-0.000000
-0.000000
-0.000000
-0.000000
-0.000000
-0.000000
0.000000
-0.000000
0.000000
-0.000000
-0.000000
-0.000000
-0.000000
-0.000000
-0.000000
-0.000000
-0.000000
-0.000000
-0.000000
-0.000000
-0.000000
-0.000000
-0.000000
-0.000000
0.000000
-0.000000
-0.000000
0.000000
0.000000
-0.000000
0.000000
-0.000000
0.000000
-0.000000
0.000000
-0.000000
0.000000
-0.000000
-0.000000
0.000000
-0.000000
0.000000
-0.000000
-0.000000
-0.000000
-0.000000
-0.000000
-0.000000
-0.000000
-0.000000
-0.000000
-0.000000
-0.000000
-0.000000
-0.000000
-0.000000
-0.000000
-0.000000
-0.000000
-0.000000
-0.000000
-0.000000
-0.000000
-0.000000
-0.000000
-0.000000
-0.000000
-0.000000
-0.000000
-0.000000
0.000000
-0.000000
0.000000
0.000000
0.000000
-0.000000
0.000000
-0.000000

SCALARS sigma_yy FLOAT 1
LOOKUP_TABLE default
-7936.786477
-7936.786477
-7936.786477
-7936.786477
-7849.024762
-7775.735250
-7849.024762
-7775.735250
-7720.058310
-7662.702770
-7720.058310
-7662.702770
-7584.369455
-7540.627685
-7584.369455
-7540.627685
-7468.985179
-7402.652782
-7468.985179
-7402.652782
-7340.951797
-7288.593548
-7340.951797
-7288.593548
-7214.120680
-7162.376949
-7214.120680
-7162.376949
-7091.503423
-7030.221521
-7091.503423
-7030.221521
-6963.590308
-6913.775167
-6963.590308
-6913.775167
-6837.415161
-6787.315178
-6837.415161
-6787.315178
-6715.396905
-6660.740182
-6715.396905
-6660.740182
-6585.933931
-6539.534079
-6585.933931
-6539.534079
-6456.693423
-6415.455746
-6456.693423
-6415.455746
-6338.929507
-6291.729460
-6338.929507
-6291.729460
-6204.097221
-6162.071220
-6204.097221
-6162.071220
-6080.231721
-6043.290094
-6080.231721
-6043.290094
-5965.128816
-5908.489751
-5965.128816
-5908.489751
-5843.892431
-5784.621391
-5843.892431
-5784.621391
-5719.328924
-5653.481203
-5719.328924
-5653.481203
-5599.881282
-5526.274319
-5599.881282
-5526.274319
-5469.639954
-5410.020562
-5469.639954
-5410.020562
-5335.883293
-5291.658245
-5335.883293
-5291.658245
-5207.104962
-5167.668888
-5207.104962
-5167.668888
-5085.064100
-5034.132355
-5085.064100
-5034.132355
-4965.843592
-4909.820393
-4965.843592
-4909.820393
-4846.338316
-4780.229754
-4846.338316
-4780.229754
-4720.907205
-4661.209379
-4720.907205
-4661.209379
-4583.130288
-4539.963311
-4583.130288
-4539.963311
-4443.565385
-4423.463969
-4443.565385
-4423.463969
-4336.481330
-4293.341477
-4336.481330
-4293.341477
-4216.165415
-4154.753101
-4216.165415
-4154.753101
-4091.817060
-4036.946578
-4091.817060
-4036.946578
-3954.508030
-3919.204404
-3954.508030
-3919.204404
-3826.691754
-3800.680639
-3826.691754
-3800.680639
-3709.622571
-3658.455363
-3709.622571
-3658.455363
-3591.060420
-3534.565073
-3591.060420
-3534.565073
-3474.106665
-3404.065349
-3474.106665
-3404.065349
-3335.242759
-3283.997281
-3335.242759
-3283.997281
-3215.409148
-3165.605832
-3215.409148
-3165.605832
-3094.448324
-3022.412758
-3094.448324
-3022.412758
-2969.853968
-2903.694825
-2969.853968
-2903.694825
-2857.073533
-2775.042767
-2857.073533
-2775.042767
-2718.131657
-2654.994421
-2718.131657
-2654.994421
-2593.052300
-2536.901127
-2593.052300
-2536.901127
-2466.494234
-2412.437491
-2466.494234
-2412.437491
-2337.491829
-2284.498193
-2337.491829
-2284.498193
-2211.288816
-2162.277624
-2211.288816
-2162.277624
-2091.201115
-2039.043292
-2091.201115
-2039.043292
-1957.111833
-1914.637461
-1957.111833
-1914.637461
-1826.271786
-1790.056892
-1826.271786
-1790.056892
-1710.124413
-1674.199561
-1710.124413
-1674.199561
-1582.554561
-1545.518115
-1582.554561
-1545.518115
-1460.009754
-1414.918864
-1460.009754
-1414.918864
-1334.930754
-1286.849408
-1334.930754
-1286.849408
-1210.071074
-1162.342043
-1210.071074
-1162.342043
-1090.826905
-1035.892869
-1090.826905
-1035.892869
-966.492735
-909.654479
-966.492735
-909.654479
-841.386653
-783.581194
-841.386653
-783.581194
-716.373369
-657.970031
-716.373369
-657.970031
-591.789460
-531.937612
-591.789460
-531.937612
-466.442417
-407.580143
-466.442417
-407.580143
-341.856218
-281.942531
-341.856218
-281.942531
-217.245940
-157.060334
-217.245940
-157.060334
-117.139900
-4.034445
-117.139900
-4.034445

SCALARS sigma_zz FLOAT 1
LOOKUP_TABLE default
0.000000
0.000000
0.000000
0.000000
0.000000
0.000000
0.000000
0.000000
0.000000
0.000000
0.000000
0.000000
0.000000
0.000000
0.000000
0.000000
0.000000
0.000000
0.000000
0.000000
0.000000
0.000000
0.000000
0.000000
0.000000
0.000000
0.000000
0.000000
0.000000
0.000000
0.000000
0.000000
0.000000
0.000000
0.000000
0.000000
0.000000
0.000000
0.000000
0.000000
0.000000
0.000000
0.000000
0.000000
0.000000
0.000000
0.000000
0.000000
0.000000
0.000000
0.000000
0.000000
0.000000
0.000000
0.000000
0.000000
0.000000
0.000000
0.000000
0.000000
0.000000
0.000000
0.000000
0.000000
0.000000
0.000000
0.000000
0.000000
0.000000
0.000000
0.000000
0.000000
0.000000
0.000000
0.000000
0.000000
0.000000
0.000000
0.000000
0.000000
0.000000
0.000000
0.000000
0.000000
0.000000
0.000000
0.000000
0.000000
0.000000
0.000000
0.000000
0.000000
0.000000
0.000000
0.000000
0.000000
0.000000
0.000000
0.000000
0.000000
0.000000
0.000000
0.000000
0.000000
0.000000
0.000000
0.000000
0.000000
0.000000
0.000000
0.000000
0.000000
0.000000
0.000000
0.000000
0.000000
0.000000
0.000000
0.000000
0.000000
0.000000
0.000000
0.000000
0.000000
0.000000
0.000000
0.000000
0.000000
0.000000
0.000000
0.000000
0.000000
0.000000
0.000000
0.000000
0.000000
0.000000
0.000000
0.000000
0.000000
0.000000
0.000000
0.000000
0.000000
0.000000
0.000000
0.000000
0.000000
0.000000
0.000000
0.000000
0.000000
0.000000
0.000000
0.000000
0.000000
0.000000
0.000000
0.000000
0.000000
0.000000
0.000000
0.000000
0.000000
0.000000
0.000000
0.000000
0.000000
0.000000
0.000000
0.000000
0.000000
0.000000
0.000000
0.000000
0.000000
0.000000
0.000000
0.000000
0.000000
0.000000
0.000000
0.000000
0.000000
0.000000
0.000000
0.000000
0.000000
0.000000
0.000000
0.000000
0.000000
0.000000
0.000000
0.000000
0.000000
0.000000
0.000000
0.000000
0.000000
0.000000
0.000000
0.000000
0.000000
0.000000
0.000000
0.000000
0.000000
0.000000
0.000000
0.000000
0.000000
0.000000
0.000000
0.000000
0.000000
0.000000
0.000000
0.000000
0.000000
0.000000
0.000000
0.000000
0.000000
0.000000
0.000000
0.000000
0.000000
0.000000
0.000000
0.000000
0.000000
0.000000
0.000000
0.000000
0.000000
0.000000
0.000000
0.000000
0.000000
0.000000
0.000000
0.000000
0.000000
0.000000
0.000000
0.000000
0.000000
0.000000
0.000000
0.000000
0.000000
0.000000
0.000000
0.000000
0.000000

SCALARS sigma_xy FLOAT 1
LOOKUP_TABLE default
0.000000
0.000000
0.000000
0.000000
0.000000
0.000000
0.000000
0.000000
0.000000
0.000000
0.000000
0.000000
0.000000
0.000000
0.000000
0.000000
-0.000000
-0.000000
-0.000000
-0.000000
0.000000
0.000000
0.000000
0.000000
0.000000
0.000000
0.000000
0.000000
-0.000000
0.000000
-0.000000
0.000000
-0.000000
0.000000
-0.000000
0.000000
0.000000
0.000000
0.000000
0.000000
0.000000
0.000000
0.000000
0.000000
0.000000
-0.000000
0.000000
-0.000000
-0.000000
-0.000000
-0.000000
-0.000000
0.000000
0.000000
0.000000
0.000000
0.000000
0.000000
0.000000
0.000000
0.000000
-0.000000
0.000000
-0.000000
-0.000000
0.000000
-0.000000
0.000000
0.000000
0.000000
0.000000
0.000000
0.000000
0.000000
0.000000
0.000000
-0.000000
-0.000000
-0.000000
-0.000000
0.000000
0.000000
0.000000
0.000000
0.000000
0.000000
0.000000
0.000000
0.000000
-0.000000
0.000000
-0.000000
0.000000
0.000000
0.000000
0.000000
-0.000000
0.000000
-0.000000
0.000000
0.000000
0.000000
0.000000
0.000000
0.000000
0.000000
0.000000
0.000000
0.000000
0.000000
0.000000
0.000000
0.000000
0.000000
0.000000
0.000000
0.000000
0.000000
0.000000
0.000000
0.000000
0.000000
0.000000
0.000000
0.000000
-0.000000
0.000000
0.000000
-0.000000
0.000000
-0.000000
0.000000
0.000000
0.000000
0.000000
0.000000
0.000000
0.000000
-0.000000
0.000000
0.000000
0.000000
0.000000
0.000000
-0.000000
0.000000
-0.000000
0.000000
0.000000
0.000000
0.000000
0.000000
-0.000000
-0.000000
-0.000000
-0.000000
0.000000
0.000000
0.000000
0.000000
0.000000
0.000000
-0.000000
0.000000
-0.000000
0.000000
-0.000000
0.000000
0.000000
0.000000
0.000000
0.000000
0.000000
0.000000
0.000000
0.000000
-0.000000
-0.000000
-0.000000
-0.000000
-0.000000
0.000000
-0.000000
0.000000
0.000000
0.000000
0.000000
0.000000
0.000000
0.000000
0.000000
0.000000
-0.000000
-0.000000
-0.000000
-0.000000
-0.000000
0.000000
-0.000000
0.000000
-0.000000
0.000000
0.000000
0.000000
0.000000
0.000000
0.000000
0.000000
0.000000
0.000000
0.000000
0.000000
0.000000
-0.000000
0.000000
0.000000
-0.000000
0.000000
-0.000000
0.000000
-0.000000
0.000000
-0.000000
0.000000
0.000000
-0.000000
0.000000
-0.000000
-0.000000
-0.000000
-0.000000
-0.000000
-0.000000
-0.000000
-0.000000
-0.000000
0.000000
0.000000
0.000000
0.000000
0.000000
0.000000
0.000000
0.000000
-0.000000
-0.000000
-0.000000
-0.000000
0.000000
0.000000
0.000000
0.000000
0.000000
-0.000000
0.000000
-0.000000

SCALARS sigma_yz FLOAT 1
LOOKUP_TABLE default
0.000000
0.000000
0.000000
0.000000
0.000000
0.000000
0.000000
0.000000
0.000000
0.000000
0.000000
0.000000
0.000000
0.000000
0.000000
0.000000
0.000000
0.000000
0.000000
0.000000
0.000000
0.000000
0.000000
0.000000
0.000000
0.000000
0.000000
0.000000
0.000000
0.000000
0.000000
0.000000
0.000000
0.000000
0.000000
0.000000
0.000000
0.000000
0.000000
0.000000
0.000000
0.000000
0.000000
0.000000
0.000000
0.000000
0.000000
0.000000
0.000000
0.000000
0.000000
0.000000
0.000000
0.000000
0.000000
0.000000
0.000000
0.000000
0.000000
0.000000
0.000000
0.000000
0.000000
0.000000
0.000000
0.000000
0.000000
0.000000
0.000000
0.000000
0.000000
0.000000
0.000000
0.000000
0.000000
0.000000
0.000000
0.000000
0.000000
0.000000
0.000000
0.000000
0.000000
0.000000
0.000000
0.000000
0.000000
0.000000
0.000000
0.000000
0.000000
0.000000
0.000000
0.000000
0.000000
0.000000
0.000000
0.000000
0.000000
0.000000
0.000000
0.000000
0.000000
0.000000
0.000000
0.000000
0.000000
0.000000
0.000000
0.000000
0.000000
0.000000
0.000000
0.000000
0.000000
0.000000
0.000000
0.000000
0.000000
0.000000
0.000000
0.000000
0.000000
0.000000
0.000000
0.000000
0.000000
0.000000
0.000000
0.000000
0.000000
0.000000
0.000000
0.000000
0.000000
0.000000
0.000000
0.000000
0.000000
0.000000
0.000000
0.000000
0.000000
0.000000
0.000000
0.000000
0.000000
0.000000
0.000000
0.000000
0.000000
0.000000
0.000000
0.000000
0.000000
0.000000
0.000000
0.000000
0.000000
0.000000
0.000000
0.000000
0.000000
0.000000
0.000000
0.000000
0.000000
0.000000
0.000000
0.000000
0.000000
0.000000
0.000000
0.000000
0.000000
0.000000
0.000000
0.000000
0.000000
0.000000
0.000000
0.000000
0.000000
0.000000
0.000000
0.000000
0.000000
0.000000
0.000000
0.000000
0.000000
0.000000
0.000000
0.000000
0.000000
0.000000
0.000000
0.000000
0.000000
0.000000
0.000000
0.000000
0.000000
0.000000
0.000000
0.000000
0.000000
0.000000
0.000000
0.000000
0.000000
0.000000
0.000000
0.000000
0.000000
0.000000
0.000000
0.000000
0.000000
0.000000
0.000000
0.000000
0.000000
0.000000
0.000000
0.000000
0.000000
0.000000
0.000000
0.000000
0.000000
0.000000
0.000000
0.000000
0.000000
0.000000
0.000000
0.000000
0.000000
0.000000
0.000000
0.000000
0.000000
0.000000
0.000000
0.000000
0.000000
0.000000
0.000000
0.000000
0.000000
0.000000
0.000000
0.000000
0.000000
0.000000

SCALARS sigma_zx FLOAT 1
LOOKUP_TABLE default
0.000000
0.000000
0.000000
0.000000
0.000000
0.000000
0.000000
0.000000
0.000000
0.000000
0.000000
0.000000
0.000000
0.000000
0.000000
0.000000
0.000000
0.000000
0.000000
0.000000
0.000000
0.000000
0.000000
0.000000
0.000000
0.000000
0.000000
0.000000
0.000000
0.000000
0.000000
0.000000
0.000000
0.000000
0.000000
0.000000
0.000000
0.000000
0.000000
0.000000
0.000000
0.000000
0.000000
0.000000
0.000000
0.000000
0.000000
0.000000
0.000000
0.000000
0.000000
0.000000
0.000000
0.000000
0.000000
0.000000
0.000000
0.000000
0.000000
0.000000
0.000000
0.000000
0.000000
0.000000
0.000000
0.000000
0.000000
0.000000
0.000000
0.000000
0.000000
0.000000
0.000000
0.000000
0.000000
0.000000
0.000000
0.000000
0.000000
0.000000
0.000000
0.000000
0.000000
0.000000
0.000000
0.000000
0.000000
0.000000
0.000000
0.000000
0.000000
0.000000
0.000000
0.000000
0.000000
0.000000
0.000000
0.000000
0.000000
0.000000
0.000000
0.000000
0.000000
0.000000
0.000000
0.000000
0.000000
0.000000
0.000000
0.000000
0.000000
0.000000
0.000000
0.000000
0.000000
0.000000
0.000000
0.000000
0.000000
0.000000
0.000000
0.000000
0.000000
0.000000
0.000000
0.000000
0.000000
0.000000
0.000000
0.000000
0.000000
0.000000
0.000000
0.000000
0.000000
0.000000
0.000000
0.000000
0.000000
0.000000
0.000000
0.000000
0.000000
0.000000
0.000000
0.000000
0.000000
0.000000
0.000000
0.000000
0.000000
0.000000
0.000000
0.000000
0.000000
0.000000
0.000000
0.000000
0.000000
0.000000
0.000000
0.000000
0.000000
0.000000
0.000000
0.000000
0.000000
0.000000
0.000000
0.000000
0.000000
0.000000
0.000000
0.000000
0.000000
0.000000
0.000000
0.000000
0.000000
0.000000
0.000000
0.000000
0.000000
0.000000
0.000000
0.000000
0.000000
0.000000
0.000000
0.000000
0.000000
0.000000
0.000000
0.000000
0.000000
0.000000
0.000000
0.000000
0.000000
0.000000
0.000000
0.000000
0.000000
0.000000
0.000000
0.000000
0.000000
0.000000
0.000000
0.000000
0.000000
0.000000
0.000000
0.000000
0.000000
0.000000
0.000000
0.000000
0.000000
0.000000
0.000000
0.000000
0.000000
0.000000
0.000000
0.000000
0.000000
0.000000
0.000000
0.000000
0.000000
0.000000
0.000000
0.000000
0.000000
0.000000
0.000000
0.000000
0.000000
0.000000
0.000000
0.000000
0.000000
0.000000
0.000000
0.000000
0.000000
0.000000
0.000000
0.000000
0.000000
0.000000
0.000000
0.000000
0.000000
0.000000

SCALARS u_x FLOAT 1
LOOKUP_TABLE default
0.000000
0.000000
0.000000
0.000000
0.000000
0.000000
0.000000
0.000000
0.000000
0.000000
0.000000
0.000000
0.000000
0.000000
0.000000
0.000000
0.000000
0.000000
0.000000
0.000000
0.000000
0.000000
0.000000
0.000000
0.000000
0.000000
0.000000
0.000000
0.000000
0.000000
0.000000
0.000000
0.000000
0.000000
0.000000
0.000000
0.000000
0.000000
0.000000
0.000000
0.000000
0.000000
0.000000
0.000000
0.000000
0.000000
0.000000
0.000000
0.000000
0.000000
0.000000
0.000000
0.000000
0.000000
0.000000
0.000000
0.000000
0.000000
0.000000
0.000000
0.000000
0.000000
0.000000
0.000000
0.000000
0.000000
0.000000
0.000000
0.000000
0.000000
0.000000
0.000000
0.000000
0.000000
0.000000
0.000000
0.000000
0.000000
0.000000
0.000000
0.000000
0.000000
0.000000
0.000000
0.000000
0.000000
0.000000
0.000000
0.000000
0.000000
0.000000
0.000000
0.000000
0.000000
0.000000
0.000000
0.000000
0.000000
0.000000
0.000000
0.000000
0.000000
0.000000
0.000000
0.000000
0.000000
0.000000
0.000000
0.000000
0.000000
0.000000
0.000000
0.000000
0.000000
0.000000
0.000000
0.000000
0.000000
0.000000
0.000000
0.000000
0.000000
0.000000
0.000000
0.000000
0.000000
0.000000
0.000000
0.000000
0.000000
0.000000
0.000000
0.000000
0.000000
0.000000
0.000000
0.000000
0.000000
0.000000
0.000000
0.000000
0.000000
0.000000
0.000000
0.000000
0.000000
0.000000
0.000000
0.000000
0.000000
0.000000
0.000000
0.000000
0.000000
0.000000
0.000000
0.000000
0.000000
0.000000
0.000000
0.000000
0.000000
0.000000
0.000000
0.000000
0.000000
0.000000
0.000000
0.000000
0.000000
0.000000
0.000000
0.000000
0.000000
0.000000
0.000000
0.000000
0.000000
0.000000
0.000000
0.000000
0.000000
0.000000
0.000000
0.000000
0.000000
0.000000
0.000000
0.000000
0.000000
0.000000
0.000000
0.000000
0.000000
0.000000
0.000000
0.000000
0.000000
0.000000
0.000000
0.000000
0.000000
0.000000
0.000000
0.000000
0.000000
0.000000
0.000000
0.000000
0.000000
0.000000
0.000000
0.000000
0.000000
0.000000
0.000000
0.000000
0.000000
0.000000
0.000000
0.000000
0.000000
0.000000
0.000000
0.000000
0.000000
0.000000
0.000000
0.000000
0.000000
0.000000
0.000000
0.000000
0.000000
0.000000
0.000000
0.000000
0.000000
0.000000
0.000000
0.000000
0.000000
0.000000
0.000000
0.000000
0.000000
0.000000
0.000000
0.000000
0.000000
0.000000
0.000000
0.000000
0.000000
0.000000
0.000000

SCALARS u_y FLOAT 1
LOOKUP_TABLE default
-0.075355
-0.226065
-0.075355
-0.226065
-0.376444
-0.525814
-0.376444
-0.525814
-0.674679
-0.822917
-0.674679
-0.822917
-0.970464
-1.117384
-0.970464
-1.117384
-1.263736
-1.409320
-1.263736
-1.409320
-1.554249
-1.698571
-1.554249
-1.698571
-1.842235
-1.985188
-1.842235
-1.985188
-2.127506
-2.269105
-2.127506
-2.269105
-2.409991
-2.550254
-2.409991
-2.550254
-2.689788
-2.828610
-2.689788
-2.828610
-2.966709
-3.104160
-2.966709
-3.104160
-3.240810
-3.376822
-3.240810
-3.376822
-3.511982
-3.646473
-3.511982
-3.646473
-3.780247
-3.913354
-3.780247
-3.913354
-4.045560
-4.176979
-4.045560
-4.176979
-4.307717
-4.437659
-4.307717
-4.437659
-4.566934
-4.695245
-4.566934
-4.695245
-4.822994
-4.949744
-4.822994
-4.949744
-5.075833
-5.200968
-5.075833
-5.200968
-5.325423
-5.449014
-5.325423
-5.449014
-5.571657
-5.693713
-5.571657
-5.693713
-5.814621
-5.934929
-5.814621
-5.934929
-6.054178
-6.172722
-6.054178
-6.172722
-6.290348
-6.406998
-6.290348
-6.406998
-6.522893
-6.637767
-6.522893
-6.637767
-6.751869
-6.864995
-6.751869
-6.864995
-6.977166
-7.088570
-6.977166
-7.088570
-7.198709
-7.308159
-7.198709
-7.308159
-7.416372
-7.523775
-7.416372
-7.523775
-7.630415
-7.735866
-7.630415
-7.735866
-7.840503
-7.943899
-7.840503
-7.943899
-8.046371
-8.147922
-8.046371
-8.147922
-8.248186
-8.347573
-8.248186
-8.347573
-8.445843
-8.543099
-8.445843
-8.543099
-8.639538
-8.734410
-8.639538
-8.734410
-8.828499
-8.921290
-8.828499
-8.921290
-9.013228
-9.103873
-9.013228
-9.103873
-9.193220
-9.281472
-9.193220
-9.281472
-9.368650
-9.454638
-9.368650
-9.454638
-9.539654
-9.623019
-9.539654
-9.623019
-9.705339
-9.786389
-9.705339
-9.786389
-9.866377
-9.945117
-9.866377
-9.945117
-10.022245
-10.098382
-10.022245
-10.098382
-10.172969
-10.246525
-10.172969
-10.246525
-10.318536
-10.389366
-10.318536
-10.389366
-10.458588
-10.526538
-10.458588
-10.526538
-10.592922
-10.658058
-10.592922
-10.658058
-10.721660
-10.784052
-10.721660
-10.784052
-10.844583
-10.903895
-10.844583
-10.903895
-10.961362
-11.017487
-10.961362
-11.017487
-11.072019
-11.125193
-11.072019
-11.125193
-11.176679
-11.226452
-11.176679
-11.226452
-11.274748
-11.321134
-11.274748
-11.321134
-11.365995
-11.408921
-11.365995
-11.408921
-11.450283
-11.489690
-11.450283
-11.489690
-11.527595
-11.563451
-11.527595
-11.563451
-11.597648
-11.629781
-11.597648
-11.629781
-11.660146
-11.688426
-11.660146
-11.688426
-11.714847
-11.739158
-11.714847
-11.739158
-11.761529
-11.781747
-11.761529
-11.781747
-11.799916
-11.815916
-11.799916
-11.815916
-11.829806
-11.841427
-11.829806
-11.841427
-11.850860
-11.857852
-11.850860
-11.857852
-11.863188
-11.866686
-11.863188
-11.866686

