# vtk DataFile Version 2.0
MATLAB generated vtk file, WMC
ASCII
DATASET UNSTRUCTURED_GRID
POINTS 256 double
0.195312 0.107270 0.000000 
0.195312 0.321810 0.000000 
0.585938 0.107270 0.000000 
0.585938 0.321810 0.000000 
0.195312 0.536645 0.000000 
0.195312 0.752449 0.000000 
0.585938 0.536645 0.000000 
0.585938 0.752449 0.000000 
0.195312 0.968946 0.000000 
0.195312 1.186031 0.000000 
0.585938 0.968946 0.000000 
0.585938 1.186031 0.000000 
0.195312 1.403755 0.000000 
0.195312 1.622211 0.000000 
0.585938 1.403755 0.000000 
0.585938 1.622211 0.000000 
0.195312 1.841226 0.000000 
0.195312 2.060935 0.000000 
0.585938 1.841226 0.000000 
0.585938 2.060935 0.000000 
0.195312 2.281357 0.000000 
0.195312 2.502517 0.000000 
0.585938 2.281357 0.000000 
0.585938 2.502517 0.000000 
0.195312 2.724285 0.000000 
0.195312 2.946790 0.000000 
0.585938 2.724285 0.000000 
0.585938 2.946790 0.000000 
0.195312 3.170002 0.000000 
0.195312 3.393877 0.000000 
0.585938 3.170002 0.000000 
0.585938 3.393877 0.000000 
0.195312 3.618442 0.000000 
0.195312 3.843751 0.000000 
0.585938 3.618442 0.000000 
0.585938 3.843751 0.000000 
0.195312 4.069789 0.000000 
0.195312 4.296529 0.000000 
0.585938 4.069789 0.000000 
0.585938 4.296529 0.000000 
0.195312 4.524062 0.000000 
0.195312 4.752342 0.000000 
0.585938 4.524062 0.000000 
0.585938 4.752342 0.000000 
0.195312 4.981393 0.000000 
0.195312 5.211118 0.000000 
0.585938 4.981393 0.000000 
0.585938 5.211118 0.000000 
0.195312 5.441701 0.000000 
0.195312 5.672960 0.000000 
0.585938 5.441701 0.000000 
0.585938 5.672960 0.000000 
0.195312 5.905023 0.000000 
0.195312 6.137790 0.000000 
0.585938 5.905023 0.000000 
0.585938 6.137790 0.000000 
0.195312 6.371455 0.000000 
0.195312 6.605889 0.000000 
0.585938 6.371455 0.000000 
0.585938 6.605889 0.000000 
0.195312 6.841099 0.000000 
0.195312 7.077132 0.000000 
0.585938 6.841099 0.000000 
0.585938 7.077132 0.000000 
0.195312 7.313949 0.000000 
0.195312 7.551696 0.000000 
0.585938 7.313949 0.000000 
0.585938 7.551696 0.000000 
0.195312 7.790136 0.000000 
0.195312 8.029596 0.000000 
0.585938 7.790136 0.000000 
0.585938 8.029596 0.000000 
0.195312 8.269797 0.000000 
0.195312 8.510967 0.000000 
0.585938 8.269797 0.000000 
0.585938 8.510967 0.000000 
0.195312 8.752871 0.000000 
0.195312 8.995657 0.000000 
0.585938 8.752871 0.000000 
0.585938 8.995657 0.000000 
0.195312 9.239461 0.000000 
0.195312 9.483945 0.000000 
0.585938 9.239461 0.000000 
0.585938 9.483945 0.000000 
0.195312 9.729528 0.000000 
0.195312 9.975837 0.000000 
0.585938 9.729528 0.000000 
0.585938 9.975837 0.000000 
0.195312 10.223297 0.000000 
0.195312 10.471556 0.000000 
0.585938 10.223297 0.000000 
0.585938 10.471556 0.000000 
0.195312 10.720746 0.000000 
0.195312 10.970903 0.000000 
0.585938 10.720746 0.000000 
0.585938 10.970903 0.000000 
0.195312 11.221882 0.000000 
0.195312 11.474029 0.000000 
0.585938 11.221882 0.000000 
0.585938 11.474029 0.000000 
0.195312 11.727036 0.000000 
0.195312 11.981035 0.000000 
0.585938 11.727036 0.000000 
0.585938 11.981035 0.000000 
0.195312 12.236090 0.000000 
0.195312 12.491971 0.000000 
0.585938 12.236090 0.000000 
0.585938 12.491971 0.000000 
0.195312 12.749158 0.000000 
0.195312 13.007157 0.000000 
0.585938 12.749158 0.000000 
0.585938 13.007157 0.000000 
0.195312 13.266423 0.000000 
0.195312 13.526584 0.000000 
0.585938 13.266423 0.000000 
0.585938 13.526584 0.000000 
0.195312 13.787731 0.000000 
0.195312 14.050123 0.000000 
0.585938 13.787731 0.000000 
0.585938 14.050123 0.000000 
0.195312 14.313392 0.000000 
0.195312 14.577956 0.000000 
0.585938 14.313392 0.000000 
0.585938 14.577956 0.000000 
0.195312 14.843561 0.000000 
0.195312 15.110230 0.000000 
0.585938 14.843561 0.000000 
0.585938 15.110230 0.000000 
0.195312 15.378228 0.000000 
0.195312 15.647164 0.000000 
0.585938 15.378228 0.000000 
0.585938 15.647164 0.000000 
0.195312 15.917400 0.000000 
0.195312 16.188748 0.000000 
0.585938 15.917400 0.000000 
0.585938 16.188748 0.000000 
0.195312 16.461192 0.000000 
0.195312 16.735175 0.000000 
0.585938 16.461192 0.000000 
0.585938 16.735175 0.000000 
0.195312 17.010138 0.000000 
0.195312 17.286596 0.000000 
0.585938 17.010138 0.000000 
0.585938 17.286596 0.000000 
0.195312 17.563982 0.000000 
0.195312 17.842768 0.000000 
0.585938 17.563982 0.000000 
0.585938 17.842768 0.000000 
0.195312 18.122854 0.000000 
0.195312 18.404075 0.000000 
0.585938 18.122854 0.000000 
0.585938 18.404075 0.000000 
0.195312 18.686810 0.000000 
0.195312 18.970855 0.000000 
0.585938 18.686810 0.000000 
0.585938 18.970855 0.000000 
0.195312 19.256142 0.000000 
0.195312 19.543123 0.000000 
0.585938 19.256142 0.000000 
0.585938 19.543123 0.000000 
0.195312 19.831149 0.000000 
0.195312 20.120889 0.000000 
0.585938 19.831149 0.000000 
0.585938 20.120889 0.000000 
0.195312 20.411837 0.000000 
0.195312 20.704128 0.000000 
0.585938 20.411837 0.000000 
0.585938 20.704128 0.000000 
0.195312 20.998201 0.000000 
0.195312 21.293314 0.000000 
0.585938 20.998201 0.000000 
0.585938 21.293314 0.000000 
0.195312 21.590535 0.000000 
0.195312 21.888947 0.000000 
0.585938 21.590535 0.000000 
0.585938 21.888947 0.000000 
0.195312 22.188912 0.000000 
0.195312 22.490354 0.000000 
0.585938 22.188912 0.000000 
0.585938 22.490354 0.000000 
0.195312 22.793418 0.000000 
0.195312 23.098355 0.000000 
0.585938 22.793418 0.000000 
0.585938 23.098355 0.000000 
0.195312 23.404978 0.000000 
0.195312 23.712985 0.000000 
0.585938 23.404978 0.000000 
0.585938 23.712985 0.000000 
0.195312 24.022898 0.000000 
0.195312 24.334073 0.000000 
0.585938 24.022898 0.000000 
0.585938 24.334073 0.000000 
0.195312 24.647797 0.000000 
0.195312 24.962858 0.000000 
0.585938 24.647797 0.000000 
0.585938 24.962858 0.000000 
0.195312 25.279916 0.000000 
0.195312 25.598492 0.000000 
0.585938 25.279916 0.000000 
0.585938 25.598492 0.000000 
0.195312 25.918852 0.000000 
0.195312 26.241433 0.000000 
0.585938 25.918852 0.000000 
0.585938 26.241433 0.000000 
0.195312 26.565757 0.000000 
0.195312 26.892455 0.000000 
0.585938 26.565757 0.000000 
0.585938 26.892455 0.000000 
0.195312 27.220827 0.000000 
0.195312 27.551381 0.000000 
0.585938 27.220827 0.000000 
0.585938 27.551381 0.000000 
0.195312 27.883795 0.000000 
0.195312 28.218344 0.000000 
0.585938 27.883795 0.000000 
0.585938 28.218344 0.000000 
0.195312 28.555226 0.000000 
0.195312 28.894204 0.000000 
0.585938 28.555226 0.000000 
0.585938 28.894204 0.000000 
0.195312 29.235615 0.000000 
0.195312 29.579256 0.000000 
0.585938 29.235615 0.000000 
0.585938 29.579256 0.000000 
0.195312 29.925163 0.000000 
0.195312 30.273390 0.000000 
0.585938 29.925163 0.000000 
0.585938 30.273390 0.000000 
0.195312 30.623910 0.000000 
0.195312 30.977033 0.000000 
0.585938 30.623910 0.000000 
0.585938 30.977033 0.000000 
0.195312 31.332428 0.000000 
0.195312 31.690764 0.000000 
0.585938 31.332428 0.000000 
0.585938 31.690764 0.000000 
0.195312 32.051372 0.000000 
0.195312 32.415054 0.000000 
0.585938 32.051372 0.000000 
0.585938 32.415054 0.000000 
0.195312 32.781117 0.000000 
0.195312 33.150419 0.000000 
0.585938 32.781117 0.000000 
0.585938 33.150419 0.000000 
0.195312 33.522156 0.000000 
0.195312 33.897133 0.000000 
0.585938 33.522156 0.000000 
0.585938 33.897133 0.000000 
0.195312 34.274747 0.000000 
0.195312 34.656483 0.000000 
0.585938 34.274747 0.000000 
0.585938 34.656483 0.000000 
0.195312 35.040349 0.000000 
0.195312 35.426320 0.000000 
0.585938 35.040349 0.000000 
0.585938 35.426320 0.000000 

POINT_DATA 256
SCALARS sigma_xx FLOAT 1
LOOKUP_TABLE default
0.000000
0.000000
0.000000
0.000000
-0.000000
-0.000000
-0.000000
-0.000000
-0.000000
0.000000
-0.000000
0.000000
0.000000
0.000000
0.000000
0.000000
0.000000
-0.000000
0.000000
-0.000000
-0.000000
0.000000
-0.000000
0.000000
-0.000000
-0.000000
-0.000000
-0.000000
0.000000
0.000000
0.000000
0.000000
-0.000000
-0.000000
-0.000000
-0.000000
0.000000
0.000000
0.000000
0.000000
0.000000
0.000000
0.000000
0.000000
-0.000000
-0.000000
-0.000000
-0.000000
0.000000
-0.000000
0.000000
-0.000000
-0.000000
-0.000000
-0.000000
-0.000000
0.000000
-0.000000
0.000000
-0.000000
-0.000000
0.000000
-0.000000
0.000000
-0.000000
-0.000000
-0.000000
-0.000000
-0.000000
-0.000000
-0.000000
-0.000000
0.000000
-0.000000
0.000000
0.000000
0.000000
0.000000
0.000000
0.000000
-0.000000
0.000000
-0.000000
0.000000
-0.000000
-0.000000
-0.000000
-0.000000
-0.000000
-0.000000
-0.000000
-0.000000
0.000000
-0.000000
0.000000
-0.000000
-0.000000
0.000000
-0.000000
0.000000
0.000000
-0.000000
0.000000
-0.000000
-0.000000
0.000000
-0.000000
-0.000000
-0.000000
-0.000000
-0.000000
-0.000000
-0.000000
-0.000000
-0.000000
-0.000000
0.000000
0.000000
0.000000
0.000000
0.000000
-0.000000
0.000000
-0.000000
-0.000000
-0.000000
-0.000000
-0.000000
-0.000000
-0.000000
-0.000000
-0.000000
-0.000000
-0.000000
-0.000000
-0.000000
0.000000
-0.000000
-0.000000
-0.000000
-0.000000
-0.000000
-0.000000
-0.000000
-0.000000
-0.000000
-0.000000
-0.000000
-0.000000
-0.000000
-0.000000
-0.000000
-0.000000
-0.000000
-0.000000
-0.000000
0.000000
0.000000
0.000000
0.000000
-0.000000
-0.000000
-0.000000
-0.000000
-0.000000
-0.000000
-0.000000
-0.000000
-0.000000
-0.000000
-0.000000
-0.000000
-0.000000
-0.000000
-0.000000
-0.000000
-0.000000
-0.000000
-0.000000
-0.000000
-0.000000
0.000000
-0.000000
0.000000
-0.000000
0.000000
-0.000000
0.000000
-0.000000
-0.000000
-0.000000
-0.000000
-0.000000
-0.000000
-0.000000
-0.000000
-0.000000
-0.000000
-0.000000
-0.000000
-0.000000
-0.000000
-0.000000
-0.000000
-0.000000
0.000000
0.000000
-0.000000
0.000000
0.000000
0.000000
0.000000
0.000000
0.000000
0.000000
-0.000000
-0.000000
-0.000000
-0.000000
-0.000000
-0.000000
-0.000000
-0.000000
-0.000000
-0.000000
0.000000
-0.000000
0.000000
-0.000000
-0.000000
-0.000000
-0.000000
0.000000
-0.000000
0.000000
-0.000000
-0.000000
-0.000000
-0.000000
-0.000000
-0.000000
-0.000000
-0.000000
-0.000000
-0.000000
-0.000000
-0.000000
-0.000000
0.000000
0.000000
-0.000000
0.000000
-0.000000
0.000000
-0.000000
0.000000

SCALARS sigma_yy FLOAT 1
LOOKUP_TABLE default
-10910.927613
-10910.927613
-10910.927613
-10910.927613
-10805.400951
-10689.969822
-10805.400951
-10689.969822
-10606.088157
-10537.268324
-10606.088157
-10537.268324
-10431.430343
-10359.738102
-10431.430343
-10359.738102
-10273.897707
-10190.230204
-10273.897707
-10190.230204
-10087.973167
-10014.927433
-10087.973167
-10014.927433
-9923.520700
-9840.410947
-9923.520700
-9840.410947
-9748.305895
-9675.007208
-9748.305895
-9675.007208
-9579.116104
-9500.954132
-9579.116104
-9500.954132
-9408.480899
-9332.513344
-9408.480899
-9332.513344
-9229.296882
-9152.756850
-9229.296882
-9152.756850
-9057.653677
-8987.454377
-9057.653677
-8987.454377
-8884.803653
-8819.101507
-8884.803653
-8819.101507
-8717.628549
-8646.848361
-8717.628549
-8646.848361
-8540.676955
-8475.475663
-8540.676955
-8475.475663
-8368.346519
-8305.092643
-8368.346519
-8305.092643
-8203.424713
-8124.901402
-8203.424713
-8124.901402
-8030.713793
-7949.373995
-8030.713793
-7949.373995
-7861.639045
-7769.906983
-7861.639045
-7769.906983
-7698.495576
-7603.124583
-7698.495576
-7603.124583
-7513.901601
-7438.912251
-7513.901601
-7438.912251
-7347.022889
-7265.806661
-7347.022889
-7265.806661
-7157.215111
-7100.292717
-7157.215111
-7100.292717
-6993.359786
-6926.204530
-6993.359786
-6926.204530
-6834.594187
-6742.196907
-6834.594187
-6742.196907
-6662.372089
-6575.627957
-6662.372089
-6575.627957
-6489.555352
-6409.141173
-6489.555352
-6409.141173
-6310.153561
-6238.155979
-6310.153561
-6238.155979
-6124.634097
-6073.974532
-6124.634097
-6073.974532
-5964.284581
-5894.356826
-5964.284581
-5894.356826
-5802.464171
-5714.717440
-5802.464171
-5714.717440
-5626.495675
-5549.749039
-5626.495675
-5549.749039
-5447.464849
-5388.062896
-5447.464849
-5388.062896
-5270.921780
-5215.353987
-5270.921780
-5215.353987
-5102.876369
-5027.062354
-5102.876369
-5027.062354
-4935.245033
-4853.194556
-4935.245033
-4853.194556
-4774.272006
-4682.143511
-4774.272006
-4682.143511
-4601.852358
-4521.661891
-4601.852358
-4521.661891
-4416.416952
-4345.537479
-4416.416952
-4345.537479
-4248.432379
-4162.665152
-4248.432379
-4162.665152
-4088.689545
-3980.940729
-4088.689545
-3980.940729
-3925.993405
-3815.501944
-3925.993405
-3815.501944
-3744.447751
-3654.296974
-3744.447751
-3654.296974
-3550.200830
-3487.562173
-3550.200830
-3487.562173
-3391.862274
-3321.711191
-3391.862274
-3321.711191
-3220.310713
-3129.462482
-3220.310713
-3129.462482
-3048.401966
-2967.711806
-3048.401966
-2967.711806
-2881.627065
-2801.964348
-2881.627065
-2801.964348
-2682.388061
-2634.999496
-2682.388061
-2634.999496
-2517.013309
-2476.675517
-2517.013309
-2476.675517
-2351.985708
-2292.687356
-2351.985708
-2292.687356
-2179.514510
-2107.930497
-2179.514510
-2107.930497
-2014.768742
-1937.402036
-2014.768742
-1937.402036
-1849.605493
-1766.151868
-1849.605493
-1766.151868
-1669.126060
-1594.773170
-1669.126060
-1594.773170
-1490.647438
-1423.829350
-1490.647438
-1423.829350
-1322.034166
-1258.799091
-1322.034166
-1258.799091
-1152.018229
-1087.885485
-1152.018229
-1087.885485
-981.305945
-910.729464
-981.305945
-910.729464
-811.655791
-735.112619
-811.655791
-735.112619
-640.236513
-559.370871
-640.236513
-559.370871
-472.137163
-389.784271
-472.137163
-389.784271
-295.356038
-196.608817
-295.356038
-196.608817
-151.850594
-32.125349
-151.850594
-32.125349

SCALARS sigma_zz FLOAT 1
LOOKUP_TABLE default
0.000000
0.000000
0.000000
0.000000
0.000000
0.000000
0.000000
0.000000
0.000000
0.000000
0.000000
0.000000
0.000000
0.000000
0.000000
0.000000
0.000000
0.000000
0.000000
0.000000
0.000000
0.000000
0.000000
0.000000
0.000000
0.000000
0.000000
0.000000
0.000000
0.000000
0.000000
0.000000
0.000000
0.000000
0.000000
0.000000
0.000000
0.000000
0.000000
0.000000
0.000000
0.000000
0.000000
0.000000
0.000000
0.000000
0.000000
0.000000
0.000000
0.000000
0.000000
0.000000
0.000000
0.000000
0.000000
0.000000
0.000000
0.000000
0.000000
0.000000
0.000000
0.000000
0.000000
0.000000
0.000000
0.000000
0.000000
0.000000
0.000000
0.000000
0.000000
0.000000
0.000000
0.000000
0.000000
0.000000
0.000000
0.000000
0.000000
0.000000
0.000000
0.000000
0.000000
0.000000
0.000000
0.000000
0.000000
0.000000
0.000000
0.000000
0.000000
0.000000
0.000000
0.000000
0.000000
0.000000
0.000000
0.000000
0.000000
0.000000
0.000000
0.000000
0.000000
0.000000
0.000000
0.000000
0.000000
0.000000
0.000000
0.000000
0.000000
0.000000
0.000000
0.000000
0.000000
0.000000
0.000000
0.000000
0.000000
0.000000
0.000000
0.000000
0.000000
0.000000
0.000000
0.000000
0.000000
0.000000
0.000000
0.000000
0.000000
0.000000
0.000000
0.000000
0.000000
0.000000
0.000000
0.000000
0.000000
0.000000
0.000000
0.000000
0.000000
0.000000
0.000000
0.000000
0.000000
0.000000
0.000000
0.000000
0.000000
0.000000
0.000000
0.000000
0.000000
0.000000
0.000000
0.000000
0.000000
0.000000
0.000000
0.000000
0.000000
0.000000
0.000000
0.000000
0.000000
0.000000
0.000000
0.000000
0.000000
0.000000
0.000000
0.000000
0.000000
0.000000
0.000000
0.000000
0.000000
0.000000
0.000000
0.000000
0.000000
0.000000
0.000000
0.000000
0.000000
0.000000
0.000000
0.000000
0.000000
0.000000
0.000000
0.000000
0.000000
0.000000
0.000000
0.000000
0.000000
0.000000
0.000000
0.000000
0.000000
0.000000
0.000000
0.000000
0.000000
0.000000
0.000000
0.000000
0.000000
0.000000
0.000000
0.000000
0.000000
0.000000
0.000000
0.000000
0.000000
0.000000
0.000000
0.000000
0.000000
0.000000
0.000000
0.000000
0.000000
0.000000
0.000000
0.000000
0.000000
0.000000
0.000000
0.000000
0.000000
0.000000
0.000000
0.000000
0.000000
0.000000
0.000000
0.000000
0.000000
0.000000
0.000000
0.000000
0.000000
0.000000
0.000000
0.000000
0.000000
0.000000
0.000000
0.000000
0.000000
0.000000

SCALARS sigma_xy FLOAT 1
LOOKUP_TABLE default
0.000000
0.000000
0.000000
0.000000
-0.000000
-0.000000
-0.000000
-0.000000
-0.000000
0.000000
-0.000000
0.000000
0.000000
0.000000
0.000000
0.000000
0.000000
-0.000000
0.000000
-0.000000
-0.000000
0.000000
-0.000000
0.000000
0.000000
0.000000
0.000000
0.000000
0.000000
0.000000
0.000000
0.000000
-0.000000
-0.000000
-0.000000
-0.000000
0.000000
0.000000
0.000000
0.000000
0.000000
0.000000
0.000000
0.000000
-0.000000
-0.000000
-0.000000
-0.000000
0.000000
0.000000
0.000000
0.000000
0.000000
0.000000
0.000000
0.000000
0.000000
-0.000000
0.000000
-0.000000
-0.000000
0.000000
-0.000000
0.000000
0.000000
0.000000
0.000000
0.000000
-0.000000
-0.000000
-0.000000
-0.000000
0.000000
0.000000
0.000000
0.000000
0.000000
0.000000
0.000000
0.000000
0.000000
0.000000
0.000000
0.000000
-0.000000
-0.000000
-0.000000
-0.000000
-0.000000
-0.000000
-0.000000
-0.000000
0.000000
0.000000
0.000000
0.000000
-0.000000
0.000000
-0.000000
0.000000
0.000000
0.000000
0.000000
0.000000
-0.000000
0.000000
-0.000000
-0.000000
-0.000000
0.000000
-0.000000
0.000000
0.000000
0.000000
0.000000
0.000000
0.000000
0.000000
0.000000
0.000000
0.000000
-0.000000
0.000000
-0.000000
-0.000000
-0.000000
-0.000000
-0.000000
-0.000000
0.000000
-0.000000
0.000000
0.000000
0.000000
0.000000
0.000000
0.000000
-0.000000
-0.000000
-0.000000
-0.000000
-0.000000
-0.000000
-0.000000
-0.000000
0.000000
-0.000000
0.000000
0.000000
0.000000
0.000000
0.000000
-0.000000
-0.000000
-0.000000
-0.000000
0.000000
0.000000
0.000000
0.000000
0.000000
-0.000000
-0.000000
-0.000000
-0.000000
-0.000000
-0.000000
-0.000000
-0.000000
-0.000000
-0.000000
-0.000000
0.000000
0.000000
0.000000
0.000000
0.000000
-0.000000
0.000000
-0.000000
-0.000000
0.000000
-0.000000
0.000000
-0.000000
0.000000
-0.000000
0.000000
0.000000
0.000000
0.000000
0.000000
-0.000000
-0.000000
-0.000000
-0.000000
-0.000000
0.000000
-0.000000
0.000000
-0.000000
0.000000
0.000000
0.000000
0.000000
0.000000
0.000000
0.000000
0.000000
0.000000
0.000000
0.000000
0.000000
0.000000
0.000000
0.000000
0.000000
0.000000
0.000000
0.000000
-0.000000
-0.000000
-0.000000
-0.000000
-0.000000
0.000000
-0.000000
0.000000
0.000000
-0.000000
0.000000
-0.000000
0.000000
-0.000000
0.000000
-0.000000
0.000000
0.000000
0.000000
0.000000
0.000000
0.000000
0.000000
0.000000
-0.000000
-0.000000
-0.000000
-0.000000
0.000000
0.000000
-0.000000
0.000000
0.000000
0.000000
0.000000
0.000000

SCALARS sigma_yz FLOAT 1
LOOKUP_TABLE default
0.000000
0.000000
0.000000
0.000000
0.000000
0.000000
0.000000
0.000000
0.000000
0.000000
0.000000
0.000000
0.000000
0.000000
0.000000
0.000000
0.000000
0.000000
0.000000
0.000000
0.000000
0.000000
0.000000
0.000000
0.000000
0.000000
0.000000
0.000000
0.000000
0.000000
0.000000
0.000000
0.000000
0.000000
0.000000
0.000000
0.000000
0.000000
0.000000
0.000000
0.000000
0.000000
0.000000
0.000000
0.000000
0.000000
0.000000
0.000000
0.000000
0.000000
0.000000
0.000000
0.000000
0.000000
0.000000
0.000000
0.000000
0.000000
0.000000
0.000000
0.000000
0.000000
0.000000
0.000000
0.000000
0.000000
0.000000
0.000000
0.000000
0.000000
0.000000
0.000000
0.000000
0.000000
0.000000
0.000000
0.000000
0.000000
0.000000
0.000000
0.000000
0.000000
0.000000
0.000000
0.000000
0.000000
0.000000
0.000000
0.000000
0.000000
0.000000
0.000000
0.000000
0.000000
0.000000
0.000000
0.000000
0.000000
0.000000
0.000000
0.000000
0.000000
0.000000
0.000000
0.000000
0.000000
0.000000
0.000000
0.000000
0.000000
0.000000
0.000000
0.000000
0.000000
0.000000
0.000000
0.000000
0.000000
0.000000
0.000000
0.000000
0.000000
0.000000
0.000000
0.000000
0.000000
0.000000
0.000000
0.000000
0.000000
0.000000
0.000000
0.000000
0.000000
0.000000
0.000000
0.000000
0.000000
0.000000
0.000000
0.000000
0.000000
0.000000
0.000000
0.000000
0.000000
0.000000
0.000000
0.000000
0.000000
0.000000
0.000000
0.000000
0.000000
0.000000
0.000000
0.000000
0.000000
0.000000
0.000000
0.000000
0.000000
0.000000
0.000000
0.000000
0.000000
0.000000
0.000000
0.000000
0.000000
0.000000
0.000000
0.000000
0.000000
0.000000
0.000000
0.000000
0.000000
0.000000
0.000000
0.000000
0.000000
0.000000
0.000000
0.000000
0.000000
0.000000
0.000000
0.000000
0.000000
0.000000
0.000000
0.000000
0.000000
0.000000
0.000000
0.000000
0.000000
0.000000
0.000000
0.000000
0.000000
0.000000
0.000000
0.000000
0.000000
0.000000
0.000000
0.000000
0.000000
0.000000
0.000000
0.000000
0.000000
0.000000
0.000000
0.000000
0.000000
0.000000
0.000000
0.000000
0.000000
0.000000
0.000000
0.000000
0.000000
0.000000
0.000000
0.000000
0.000000
0.000000
0.000000
0.000000
0.000000
0.000000
0.000000
0.000000
0.000000
0.000000
0.000000
0.000000
0.000000
0.000000
0.000000
0.000000
0.000000
0.000000
0.000000
0.000000
0.000000
0.000000
0.000000
0.000000
0.000000
0.000000
0.000000

SCALARS sigma_zx FLOAT 1
LOOKUP_TABLE default
0.000000
0.000000
0.000000
0.000000
0.000000
0.000000
0.000000
0.000000
0.000000
0.000000
0.000000
0.000000
0.000000
0.000000
0.000000
0.000000
0.000000
0.000000
0.000000
0.000000
0.000000
0.000000
0.000000
0.000000
0.000000
0.000000
0.000000
0.000000
0.000000
0.000000
0.000000
0.000000
0.000000
0.000000
0.000000
0.000000
0.000000
0.000000
0.000000
0.000000
0.000000
0.000000
0.000000
0.000000
0.000000
0.000000
0.000000
0.000000
0.000000
0.000000
0.000000
0.000000
0.000000
0.000000
0.000000
0.000000
0.000000
0.000000
0.000000
0.000000
0.000000
0.000000
0.000000
0.000000
0.000000
0.000000
0.000000
0.000000
0.000000
0.000000
0.000000
0.000000
0.000000
0.000000
0.000000
0.000000
0.000000
0.000000
0.000000
0.000000
0.000000
0.000000
0.000000
0.000000
0.000000
0.000000
0.000000
0.000000
0.000000
0.000000
0.000000
0.000000
0.000000
0.000000
0.000000
0.000000
0.000000
0.000000
0.000000
0.000000
0.000000
0.000000
0.000000
0.000000
0.000000
0.000000
0.000000
0.000000
0.000000
0.000000
0.000000
0.000000
0.000000
0.000000
0.000000
0.000000
0.000000
0.000000
0.000000
0.000000
0.000000
0.000000
0.000000
0.000000
0.000000
0.000000
0.000000
0.000000
0.000000
0.000000
0.000000
0.000000
0.000000
0.000000
0.000000
0.000000
0.000000
0.000000
0.000000
0.000000
0.000000
0.000000
0.000000
0.000000
0.000000
0.000000
0.000000
0.000000
0.000000
0.000000
0.000000
0.000000
0.000000
0.000000
0.000000
0.000000
0.000000
0.000000
0.000000
0.000000
0.000000
0.000000
0.000000
0.000000
0.000000
0.000000
0.000000
0.000000
0.000000
0.000000
0.000000
0.000000
0.000000
0.000000
0.000000
0.000000
0.000000
0.000000
0.000000
0.000000
0.000000
0.000000
0.000000
0.000000
0.000000
0.000000
0.000000
0.000000
0.000000
0.000000
0.000000
0.000000
0.000000
0.000000
0.000000
0.000000
0.000000
0.000000
0.000000
0.000000
0.000000
0.000000
0.000000
0.000000
0.000000
0.000000
0.000000
0.000000
0.000000
0.000000
0.000000
0.000000
0.000000
0.000000
0.000000
0.000000
0.000000
0.000000
0.000000
0.000000
0.000000
0.000000
0.000000
0.000000
0.000000
0.000000
0.000000
0.000000
0.000000
0.000000
0.000000
0.000000
0.000000
0.000000
0.000000
0.000000
0.000000
0.000000
0.000000
0.000000
0.000000
0.000000
0.000000
0.000000
0.000000
0.000000
0.000000
0.000000
0.000000
0.000000
0.000000
0.000000
0.000000
0.000000
0.000000
0.000000

SCALARS u_x FLOAT 1
LOOKUP_TABLE default
0.000000
0.000000
0.000000
0.000000
0.000000
0.000000
0.000000
0.000000
0.000000
0.000000
0.000000
0.000000
0.000000
0.000000
0.000000
0.000000
0.000000
0.000000
0.000000
0.000000
0.000000
0.000000
0.000000
0.000000
0.000000
0.000000
0.000000
0.000000
0.000000
0.000000
0.000000
0.000000
0.000000
0.000000
0.000000
0.000000
0.000000
0.000000
0.000000
0.000000
0.000000
0.000000
0.000000
0.000000
0.000000
0.000000
0.000000
0.000000
0.000000
0.000000
0.000000
0.000000
0.000000
0.000000
0.000000
0.000000
0.000000
0.000000
0.000000
0.000000
0.000000
0.000000
0.000000
0.000000
0.000000
0.000000
0.000000
0.000000
0.000000
0.000000
0.000000
0.000000
0.000000
0.000000
0.000000
0.000000
0.000000
0.000000
0.000000
0.000000
0.000000
0.000000
0.000000
0.000000
0.000000
0.000000
0.000000
0.000000
0.000000
0.000000
0.000000
0.000000
0.000000
0.000000
0.000000
0.000000
0.000000
0.000000
0.000000
0.000000
0.000000
0.000000
0.000000
0.000000
0.000000
0.000000
0.000000
0.000000
0.000000
0.000000
0.000000
0.000000
0.000000
0.000000
0.000000
0.000000
0.000000
0.000000
0.000000
0.000000
0.000000
0.000000
0.000000
0.000000
0.000000
0.000000
0.000000
0.000000
0.000000
0.000000
0.000000
0.000000
0.000000
0.000000
0.000000
0.000000
0.000000
0.000000
0.000000
0.000000
0.000000
0.000000
0.000000
0.000000
0.000000
0.000000
0.000000
0.000000
0.000000
0.000000
0.000000
0.000000
0.000000
0.000000
0.000000
0.000000
0.000000
0.000000
0.000000
0.000000
0.000000
0.000000
0.000000
0.000000
0.000000
0.000000
0.000000
0.000000
0.000000
0.000000
0.000000
0.000000
0.000000
0.000000
0.000000
0.000000
0.000000
0.000000
0.000000
0.000000
0.000000
0.000000
0.000000
0.000000
0.000000
0.000000
0.000000
0.000000
0.000000
0.000000
0.000000
0.000000
0.000000
0.000000
0.000000
0.000000
0.000000
0.000000
0.000000
0.000000
0.000000
0.000000
0.000000
0.000000
0.000000
0.000000
0.000000
0.000000
0.000000
0.000000
0.000000
0.000000
0.000000
0.000000
0.000000
0.000000
0.000000
0.000000
0.000000
0.000000
0.000000
0.000000
0.000000
0.000000
0.000000
0.000000
0.000000
0.000000
0.000000
0.000000
0.000000
0.000000
0.000000
0.000000
0.000000
0.000000
0.000000
0.000000
0.000000
0.000000
0.000000
0.000000
0.000000
0.000000
0.000000
0.000000
0.000000
0.000000
0.000000
0.000000
0.000000
0.000000
0.000000
0.000000
0.000000
0.000000

SCALARS u_y FLOAT 1
LOOKUP_TABLE default
-0.088043
-0.264128
-0.088043
-0.264128
-0.439917
-0.614739
-0.439917
-0.614739
-0.788867
-0.962407
-0.788867
-0.962407
-1.135308
-1.307476
-1.135308
-1.307476
-1.479086
-1.650003
-1.479086
-1.650003
-1.820205
-1.989671
-1.820205
-1.989671
-2.158528
-2.326647
-2.158528
-2.326647
-2.494061
-2.660811
-2.494061
-2.660811
-2.826871
-2.992187
-2.826871
-2.992187
-3.156774
-3.320659
-3.156774
-3.320659
-3.483750
-3.646096
-3.483750
-3.646096
-3.807670
-3.968569
-3.807670
-3.968569
-4.128611
-4.287977
-4.128611
-4.287977
-4.446539
-4.604398
-4.446539
-4.604398
-4.761357
-4.917548
-4.761357
-4.917548
-5.072964
-5.227555
-5.072964
-5.227555
-5.381364
-5.534242
-5.381364
-5.534242
-5.686426
-5.837591
-5.686426
-5.837591
-5.988015
-6.137470
-5.988015
-6.137470
-6.286191
-6.434031
-6.286191
-6.434031
-6.580851
-6.726992
-6.580851
-6.726992
-6.872035
-7.016350
-6.872035
-7.016350
-7.159515
-7.301882
-7.159515
-7.301882
-7.443317
-7.583784
-7.443317
-7.583784
-7.723431
-7.861909
-7.723431
-7.861909
-7.999526
-8.136152
-7.999526
-8.136152
-8.271723
-8.406467
-8.271723
-8.406467
-8.539905
-8.672530
-8.539905
-8.672530
-8.803890
-8.934353
-8.803890
-8.934353
-9.063831
-9.192064
-9.063831
-9.192064
-9.319421
-9.445482
-9.319421
-9.445482
-9.570501
-9.694458
-9.570501
-9.694458
-9.817085
-9.938773
-9.817085
-9.938773
-10.059162
-10.178440
-10.059162
-10.178440
-10.296621
-10.413262
-10.296621
-10.413262
-10.528925
-10.643092
-10.528925
-10.643092
-10.756330
-10.868170
-10.756330
-10.868170
-10.978709
-11.088112
-10.978709
-11.088112
-11.196003
-11.302583
-11.196003
-11.302583
-11.407921
-11.511564
-11.407921
-11.511564
-11.614163
-11.715048
-11.614163
-11.715048
-11.814726
-11.913059
-11.814726
-11.913059
-12.009612
-12.105124
-12.009612
-12.105124
-12.198528
-12.290741
-12.198528
-12.290741
-12.381400
-12.470583
-12.381400
-12.470583
-12.558145
-12.643833
-12.558145
-12.643833
-12.727834
-12.810452
-12.727834
-12.810452
-12.891165
-12.970614
-12.891165
-12.970614
-13.047516
-13.123079
-13.047516
-13.123079
-13.196646
-13.268696
-13.196646
-13.268696
-13.338960
-13.407005
-13.338960
-13.407005
-13.473306
-13.537233
-13.473306
-13.537233
-13.599486
-13.659556
-13.599486
-13.659556
-13.717768
-13.773843
-13.717768
-13.773843
-13.827587
-13.879233
-13.827587
-13.879233
-13.928448
-13.975431
-13.928448
-13.975431
-14.020149
-14.062547
-14.020149
-14.062547
-14.102652
-14.140154
-14.102652
-14.140154
-14.175385
-14.207673
-14.175385
-14.207673
-14.237691
-14.264633
-14.237691
-14.264633
-14.289195
-14.310518
-14.289195
-14.310518
-14.329406
-14.345054
-14.329406
-14.345054
-14.358065
-14.366955
-14.358065
-14.366955
-14.373713
-14.378367
-14.373713
-14.378367

