# vtk DataFile Version 2.0
MATLAB generated vtk file, WMC
ASCII
DATASET UNSTRUCTURED_GRID
POINTS 256 double
0.195312 0.076750 0.000000 
0.195312 0.230249 0.000000 
0.585938 0.076750 0.000000 
0.585938 0.230249 0.000000 
0.195312 0.383959 0.000000 
0.195312 0.538367 0.000000 
0.585938 0.383959 0.000000 
0.585938 0.538367 0.000000 
0.195312 0.693458 0.000000 
0.195312 0.849304 0.000000 
0.585938 0.693458 0.000000 
0.585938 0.849304 0.000000 
0.195312 1.005669 0.000000 
0.195312 1.162598 0.000000 
0.585938 1.005669 0.000000 
0.585938 1.162598 0.000000 
0.195312 1.320126 0.000000 
0.195312 1.478352 0.000000 
0.585938 1.320126 0.000000 
0.585938 1.478352 0.000000 
0.195312 1.637251 0.000000 
0.195312 1.796755 0.000000 
0.585938 1.637251 0.000000 
0.585938 1.796755 0.000000 
0.195312 1.956852 0.000000 
0.195312 2.117629 0.000000 
0.585938 1.956852 0.000000 
0.585938 2.117629 0.000000 
0.195312 2.279074 0.000000 
0.195312 2.441227 0.000000 
0.585938 2.279074 0.000000 
0.585938 2.441227 0.000000 
0.195312 2.604027 0.000000 
0.195312 2.767492 0.000000 
0.585938 2.604027 0.000000 
0.585938 2.767492 0.000000 
0.195312 2.931651 0.000000 
0.195312 3.096534 0.000000 
0.585938 2.931651 0.000000 
0.585938 3.096534 0.000000 
0.195312 3.262165 0.000000 
0.195312 3.428467 0.000000 
0.585938 3.262165 0.000000 
0.585938 3.428467 0.000000 
0.195312 3.595484 0.000000 
0.195312 3.763200 0.000000 
0.585938 3.595484 0.000000 
0.585938 3.763200 0.000000 
0.195312 3.931676 0.000000 
0.195312 4.100853 0.000000 
0.585938 3.931676 0.000000 
0.585938 4.100853 0.000000 
0.195312 4.270809 0.000000 
0.195312 4.441480 0.000000 
0.585938 4.270809 0.000000 
0.585938 4.441480 0.000000 
0.195312 4.613003 0.000000 
0.195312 4.785331 0.000000 
0.585938 4.613003 0.000000 
0.585938 4.785331 0.000000 
0.195312 4.958387 0.000000 
0.195312 5.132231 0.000000 
0.585938 4.958387 0.000000 
0.585938 5.132231 0.000000 
0.195312 5.306893 0.000000 
0.195312 5.482427 0.000000 
0.585938 5.306893 0.000000 
0.585938 5.482427 0.000000 
0.195312 5.658677 0.000000 
0.195312 5.835837 0.000000 
0.585938 5.658677 0.000000 
0.585938 5.835837 0.000000 
0.195312 6.013821 0.000000 
0.195312 6.192722 0.000000 
0.585938 6.013821 0.000000 
0.585938 6.192722 0.000000 
0.195312 6.372429 0.000000 
0.195312 6.552986 0.000000 
0.585938 6.372429 0.000000 
0.585938 6.552986 0.000000 
0.195312 6.734497 0.000000 
0.195312 6.916798 0.000000 
0.585938 6.734497 0.000000 
0.585938 6.916798 0.000000 
0.195312 7.100164 0.000000 
0.195312 7.284324 0.000000 
0.585938 7.100164 0.000000 
0.585938 7.284324 0.000000 
0.195312 7.469516 0.000000 
0.195312 7.655594 0.000000 
0.585938 7.469516 0.000000 
0.585938 7.655594 0.000000 
0.195312 7.842643 0.000000 
0.195312 8.030674 0.000000 
0.585938 7.842643 0.000000 
0.585938 8.030674 0.000000 
0.195312 8.219675 0.000000 
0.195312 8.409767 0.000000 
0.585938 8.219675 0.000000 
0.585938 8.409767 0.000000 
0.195312 8.600827 0.000000 
0.195312 8.792902 0.000000 
0.585938 8.600827 0.000000 
0.585938 8.792902 0.000000 
0.195312 8.986040 0.000000 
0.195312 9.180136 0.000000 
0.585938 8.986040 0.000000 
0.585938 9.180136 0.000000 
0.195312 9.375436 0.000000 
0.195312 9.571721 0.000000 
0.585938 9.375436 0.000000 
0.585938 9.571721 0.000000 
0.195312 9.769185 0.000000 
0.195312 9.967727 0.000000 
0.585938 9.769185 0.000000 
0.585938 9.967727 0.000000 
0.195312 10.167391 0.000000 
0.195312 10.368220 0.000000 
0.585938 10.167391 0.000000 
0.585938 10.368220 0.000000 
0.195312 10.570229 0.000000 
0.195312 10.773530 0.000000 
0.585938 10.570229 0.000000 
0.585938 10.773530 0.000000 
0.195312 10.978002 0.000000 
0.195312 11.183676 0.000000 
0.585938 10.978002 0.000000 
0.585938 11.183676 0.000000 
0.195312 11.390612 0.000000 
0.195312 11.598624 0.000000 
0.585938 11.390612 0.000000 
0.585938 11.598624 0.000000 
0.195312 11.808064 0.000000 
0.195312 12.018760 0.000000 
0.585938 11.808064 0.000000 
0.585938 12.018760 0.000000 
0.195312 12.230809 0.000000 
0.195312 12.444429 0.000000 
0.585938 12.230809 0.000000 
0.585938 12.444429 0.000000 
0.195312 12.659153 0.000000 
0.195312 12.875408 0.000000 
0.585938 12.659153 0.000000 
0.585938 12.875408 0.000000 
0.195312 13.092950 0.000000 
0.195312 13.312023 0.000000 
0.585938 13.092950 0.000000 
0.585938 13.312023 0.000000 
0.195312 13.532586 0.000000 
0.195312 13.754642 0.000000 
0.585938 13.532586 0.000000 
0.585938 13.754642 0.000000 
0.195312 13.978315 0.000000 
0.195312 14.203486 0.000000 
0.585938 13.978315 0.000000 
0.585938 14.203486 0.000000 
0.195312 14.430067 0.000000 
0.195312 14.658434 0.000000 
0.585938 14.430067 0.000000 
0.585938 14.658434 0.000000 
0.195312 14.888320 0.000000 
0.195312 15.119992 0.000000 
0.585938 14.888320 0.000000 
0.585938 15.119992 0.000000 
0.195312 15.353250 0.000000 
0.195312 15.588321 0.000000 
0.585938 15.353250 0.000000 
0.585938 15.588321 0.000000 
0.195312 15.825366 0.000000 
0.195312 16.063885 0.000000 
0.585938 15.825366 0.000000 
0.585938 16.063885 0.000000 
0.195312 16.304583 0.000000 
0.195312 16.546925 0.000000 
0.585938 16.304583 0.000000 
0.585938 16.546925 0.000000 
0.195312 16.791298 0.000000 
0.195312 17.037593 0.000000 
0.585938 16.791298 0.000000 
0.585938 17.037593 0.000000 
0.195312 17.286026 0.000000 
0.195312 17.536458 0.000000 
0.585938 17.286026 0.000000 
0.585938 17.536458 0.000000 
0.195312 17.788969 0.000000 
0.195312 18.043658 0.000000 
0.585938 17.788969 0.000000 
0.585938 18.043658 0.000000 
0.195312 18.300653 0.000000 
0.195312 18.559523 0.000000 
0.585938 18.300653 0.000000 
0.585938 18.559523 0.000000 
0.195312 18.821195 0.000000 
0.195312 19.084891 0.000000 
0.585938 18.821195 0.000000 
0.585938 19.084891 0.000000 
0.195312 19.351270 0.000000 
0.195312 19.619702 0.000000 
0.585938 19.351270 0.000000 
0.585938 19.619702 0.000000 
0.195312 19.890855 0.000000 
0.195312 20.164804 0.000000 
0.585938 19.890855 0.000000 
0.585938 20.164804 0.000000 
0.195312 20.441188 0.000000 
0.195312 20.720703 0.000000 
0.585938 20.441188 0.000000 
0.585938 20.720703 0.000000 
0.195312 21.002928 0.000000 
0.195312 21.288277 0.000000 
0.585938 21.002928 0.000000 
0.585938 21.288277 0.000000 
0.195312 21.576149 0.000000 
0.195312 21.867416 0.000000 
0.585938 21.576149 0.000000 
0.585938 21.867416 0.000000 
0.195312 22.162142 0.000000 
0.195312 22.459837 0.000000 
0.585938 22.162142 0.000000 
0.585938 22.459837 0.000000 
0.195312 22.760912 0.000000 
0.195312 23.065253 0.000000 
0.585938 22.760912 0.000000 
0.585938 23.065253 0.000000 
0.195312 23.373906 0.000000 
0.195312 23.686195 0.000000 
0.585938 23.373906 0.000000 
0.585938 23.686195 0.000000 
0.195312 24.002049 0.000000 
0.195312 24.321693 0.000000 
0.585938 24.002049 0.000000 
0.585938 24.321693 0.000000 
0.195312 24.645542 0.000000 
0.195312 24.974176 0.000000 
0.585938 24.645542 0.000000 
0.585938 24.974176 0.000000 
0.195312 25.306945 0.000000 
0.195312 25.645090 0.000000 
0.585938 25.306945 0.000000 
0.585938 25.645090 0.000000 
0.195312 25.987462 0.000000 
0.195312 26.335292 0.000000 
0.585938 25.987462 0.000000 
0.585938 26.335292 0.000000 
0.195312 26.687713 0.000000 
0.195312 27.046254 0.000000 
0.585938 26.687713 0.000000 
0.585938 27.046254 0.000000 
0.195312 27.410113 0.000000 
0.195312 27.781076 0.000000 
0.585938 27.410113 0.000000 
0.585938 27.781076 0.000000 
0.195312 28.156794 0.000000 
0.195312 28.538669 0.000000 
0.585938 28.156794 0.000000 
0.585938 28.538669 0.000000 

POINT_DATA 256
SCALARS sigma_xx FLOAT 1
LOOKUP_TABLE default
0.000000
0.000000
0.000000
0.000000
0.000000
-0.000000
0.000000
-0.000000
-0.000000
-0.000000
-0.000000
-0.000000
-0.000000
-0.000000
-0.000000
-0.000000
-0.000000
-0.000000
-0.000000
-0.000000
-0.000000
-0.000000
-0.000000
-0.000000
-0.000000
-0.000000
-0.000000
-0.000000
-0.000000
-0.000000
-0.000000
-0.000000
0.000000
-0.000000
-0.000000
-0.000000
0.000000
-0.000000
0.000000
-0.000000
-0.000000
-0.000000
-0.000000
-0.000000
0.000000
0.000000
0.000000
-0.000000
-0.000000
-0.000000
-0.000000
-0.000000
0.000000
0.000000
0.000000
-0.000000
-0.000000
-0.000000
-0.000000
-0.000000
-0.000000
-0.000000
-0.000000
-0.000000
-0.000000
-0.000000
-0.000000
-0.000000
-0.000000
-0.000000
-0.000000
-0.000000
0.000000
-0.000000
0.000000
-0.000000
-0.000000
-0.000000
-0.000000
-0.000000
-0.000000
-0.000000
0.000000
-0.000000
-0.000000
-0.000000
-0.000000
-0.000000
-0.000000
-0.000000
-0.000000
-0.000000
-0.000000
-0.000000
-0.000000
-0.000000
-0.000000
-0.000000
-0.000000
-0.000000
-0.000000
-0.000000
-0.000000
-0.000000
-0.000000
0.000000
-0.000000
-0.000000
-0.000000
-0.000000
-0.000000
-0.000000
-0.000000
-0.000000
-0.000000
-0.000000
-0.000000
-0.000000
-0.000000
-0.000000
-0.000000
-0.000000
-0.000000
-0.000000
-0.000000
-0.000000
-0.000000
-0.000000
-0.000000
-0.000000
-0.000000
-0.000000
-0.000000
-0.000000
-0.000000
-0.000000
-0.000000
-0.000000
-0.000000
-0.000000
-0.000000
-0.000000
-0.000000
-0.000000
-0.000000
-0.000000
-0.000000
-0.000000
-0.000000
-0.000000
-0.000000
-0.000000
-0.000000
-0.000000
-0.000000
-0.000000
-0.000000
-0.000000
-0.000000
-0.000000
-0.000000
-0.000000
0.000000
-0.000000
-0.000000
-0.000000
-0.000000
-0.000000
-0.000000
-0.000000
-0.000000
-0.000000
-0.000000
-0.000000
-0.000000
-0.000000
-0.000000
-0.000000
-0.000000
-0.000000
-0.000000
-0.000000
-0.000000
-0.000000
-0.000000
-0.000000
-0.000000
-0.000000
-0.000000
-0.000000
-0.000000
-0.000000
-0.000000
-0.000000
-0.000000
-0.000000
-0.000000
-0.000000
-0.000000
-0.000000
-0.000000
-0.000000
-0.000000
-0.000000
-0.000000
0.000000
-0.000000
0.000000
-0.000000
-0.000000
-0.000000
-0.000000
-0.000000
-0.000000
-0.000000
-0.000000
-0.000000
-0.000000
-0.000000
-0.000000
0.000000
-0.000000
0.000000
-0.000000
-0.000000
0.000000
-0.000000
0.000000
-0.000000
-0.000000
-0.000000
-0.000000
-0.000000
-0.000000
0.000000
0.000000
-0.000000
-0.000000
-0.000000
-0.000000
0.000000
-0.000000
0.000000
-0.000000
-0.000000
-0.000000
-0.000000
0.000000
-0.000000
0.000000
-0.000000
0.000000
0.000000
0.000000
0.000000
0.000000

SCALARS sigma_yy FLOAT 1
LOOKUP_TABLE default
-23769.844483
-23769.844483
-23769.844483
-23769.844483
-23591.441665
-23385.376827
-23591.441665
-23385.376827
-23131.320908
-22956.594340
-23131.320908
-22956.594340
-22778.434423
-22621.246245
-22778.434423
-22621.246245
-22411.377595
-22213.266705
-22411.377595
-22213.266705
-22016.205756
-21859.431048
-22016.205756
-21859.431048
-21661.228252
-21480.560982
-21661.228252
-21480.560982
-21270.915077
-21095.189119
-21270.915077
-21095.189119
-20899.107860
-20732.459782
-20899.107860
-20732.459782
-20523.551562
-20344.735658
-20523.551562
-20344.735658
-20138.702427
-19973.177397
-20138.702427
-19973.177397
-19768.442510
-19608.384040
-19768.442510
-19608.384040
-19403.053573
-19236.362842
-19403.053573
-19236.362842
-19027.174402
-18856.264162
-19027.174402
-18856.264162
-18636.746557
-18474.567560
-18636.746557
-18474.567560
-18268.134567
-18106.506308
-18268.134567
-18106.506308
-17901.098518
-17717.202319
-17901.098518
-17717.202319
-17533.147297
-17351.424613
-17533.147297
-17351.424613
-17150.774839
-16960.365321
-17150.774839
-16960.365321
-16786.972824
-16602.178793
-16786.972824
-16602.178793
-16401.295320
-16228.091594
-16401.295320
-16228.091594
-16024.761114
-15855.907861
-16024.761114
-15855.907861
-15640.696462
-15483.174966
-15640.696462
-15483.174966
-15277.745303
-15099.074929
-15277.745303
-15099.074929
-14904.053546
-14712.368468
-14904.053546
-14712.368468
-14522.667683
-14347.811282
-14522.667683
-14347.811282
-14152.448579
-13977.447050
-14152.448579
-13977.447050
-13782.052407
-13601.794164
-13782.052407
-13601.794164
-13394.143032
-13230.757968
-13394.143032
-13230.757968
-13025.331073
-12851.973637
-13025.331073
-12851.973637
-12647.553237
-12460.180688
-12647.553237
-12460.180688
-12262.881155
-12103.650995
-12262.881155
-12103.650995
-11899.884199
-11747.020277
-11899.884199
-11747.020277
-11521.334579
-11355.977675
-11521.334579
-11355.977675
-11134.363866
-10970.353979
-11134.363866
-10970.353979
-10781.165165
-10599.048637
-10781.165165
-10599.048637
-10410.445734
-10216.649403
-10410.445734
-10216.649403
-10029.670959
-9845.165327
-10029.670959
-9845.165327
-9634.208157
-9478.219546
-9634.208157
-9478.219546
-9290.232379
-9085.863372
-9290.232379
-9085.863372
-8922.618507
-8714.662277
-8922.618507
-8714.662277
-8541.629097
-8329.413558
-8541.629097
-8329.413558
-8158.501827
-7967.356147
-8158.501827
-7967.356147
-7771.489005
-7602.764024
-7771.489005
-7602.764024
-7398.415181
-7217.091261
-7398.415181
-7217.091261
-7031.076038
-6837.829251
-7031.076038
-6837.829251
-6660.478092
-6459.577542
-6660.478092
-6459.577542
-6285.091624
-6099.691359
-6285.091624
-6099.691359
-5890.273375
-5732.762279
-5890.273375
-5732.762279
-5515.728325
-5379.608737
-5515.728325
-5379.608737
-5143.462381
-4986.203329
-5143.462381
-4986.203329
-4775.704638
-4594.546747
-4775.704638
-4594.546747
-4397.815674
-4222.751846
-4397.815674
-4222.751846
-4034.226281
-3838.241512
-4034.226281
-3838.241512
-3643.955793
-3475.792002
-3643.955793
-3475.792002
-3286.149948
-3105.942715
-3286.149948
-3105.942715
-2874.896622
-2723.955384
-2874.896622
-2723.955384
-2532.644691
-2370.292402
-2532.644691
-2370.292402
-2140.953923
-1982.475351
-2140.953923
-1982.475351
-1766.373384
-1590.197694
-1766.373384
-1590.197694
-1402.665992
-1224.421563
-1402.665992
-1224.421563
-1039.291518
-843.091263
-1039.291518
-843.091263
-663.110342
-466.085335
-663.110342
-466.085335
-301.653579
-52.483502
-301.653579
-52.483502

SCALARS sigma_zz FLOAT 1
LOOKUP_TABLE default
0.000000
0.000000
0.000000
0.000000
0.000000
0.000000
0.000000
0.000000
0.000000
0.000000
0.000000
0.000000
0.000000
0.000000
0.000000
0.000000
0.000000
0.000000
0.000000
0.000000
0.000000
0.000000
0.000000
0.000000
0.000000
0.000000
0.000000
0.000000
0.000000
0.000000
0.000000
0.000000
0.000000
0.000000
0.000000
0.000000
0.000000
0.000000
0.000000
0.000000
0.000000
0.000000
0.000000
0.000000
0.000000
0.000000
0.000000
0.000000
0.000000
0.000000
0.000000
0.000000
0.000000
0.000000
0.000000
0.000000
0.000000
0.000000
0.000000
0.000000
0.000000
0.000000
0.000000
0.000000
0.000000
0.000000
0.000000
0.000000
0.000000
0.000000
0.000000
0.000000
0.000000
0.000000
0.000000
0.000000
0.000000
0.000000
0.000000
0.000000
0.000000
0.000000
0.000000
0.000000
0.000000
0.000000
0.000000
0.000000
0.000000
0.000000
0.000000
0.000000
0.000000
0.000000
0.000000
0.000000
0.000000
0.000000
0.000000
0.000000
0.000000
0.000000
0.000000
0.000000
0.000000
0.000000
0.000000
0.000000
0.000000
0.000000
0.000000
0.000000
0.000000
0.000000
0.000000
0.000000
0.000000
0.000000
0.000000
0.000000
0.000000
0.000000
0.000000
0.000000
0.000000
0.000000
0.000000
0.000000
0.000000
0.000000
0.000000
0.000000
0.000000
0.000000
0.000000
0.000000
0.000000
0.000000
0.000000
0.000000
0.000000
0.000000
0.000000
0.000000
0.000000
0.000000
0.000000
0.000000
0.000000
0.000000
0.000000
0.000000
0.000000
0.000000
0.000000
0.000000
0.000000
0.000000
0.000000
0.000000
0.000000
0.000000
0.000000
0.000000
0.000000
0.000000
0.000000
0.000000
0.000000
0.000000
0.000000
0.000000
0.000000
0.000000
0.000000
0.000000
0.000000
0.000000
0.000000
0.000000
0.000000
0.000000
0.000000
0.000000
0.000000
0.000000
0.000000
0.000000
0.000000
0.000000
0.000000
0.000000
0.000000
0.000000
0.000000
0.000000
0.000000
0.000000
0.000000
0.000000
0.000000
0.000000
0.000000
0.000000
0.000000
0.000000
0.000000
0.000000
0.000000
0.000000
0.000000
0.000000
0.000000
0.000000
0.000000
0.000000
0.000000
0.000000
0.000000
0.000000
0.000000
0.000000
0.000000
0.000000
0.000000
0.000000
0.000000
0.000000
0.000000
0.000000
0.000000
0.000000
0.000000
0.000000
0.000000
0.000000
0.000000
0.000000
0.000000
0.000000
0.000000
0.000000
0.000000
0.000000
0.000000
0.000000
0.000000
0.000000
0.000000
0.000000
0.000000
0.000000
0.000000
0.000000
0.000000
0.000000

SCALARS sigma_xy FLOAT 1
LOOKUP_TABLE default
0.000000
0.000000
0.000000
0.000000
0.000000
-0.000000
0.000000
-0.000000
-0.000000
-0.000000
-0.000000
-0.000000
0.000000
0.000000
0.000000
0.000000
0.000000
0.000000
0.000000
0.000000
-0.000000
-0.000000
-0.000000
-0.000000
-0.000000
-0.000000
-0.000000
-0.000000
-0.000000
0.000000
-0.000000
0.000000
0.000000
0.000000
0.000000
0.000000
0.000000
-0.000000
0.000000
-0.000000
-0.000000
0.000000
-0.000000
0.000000
0.000000
0.000000
0.000000
-0.000000
-0.000000
-0.000000
-0.000000
-0.000000
0.000000
0.000000
0.000000
0.000000
-0.000000
-0.000000
-0.000000
-0.000000
-0.000000
-0.000000
-0.000000
-0.000000
0.000000
0.000000
0.000000
0.000000
0.000000
0.000000
0.000000
0.000000
0.000000
0.000000
0.000000
0.000000
-0.000000
-0.000000
-0.000000
-0.000000
-0.000000
-0.000000
0.000000
-0.000000
0.000000
0.000000
0.000000
0.000000
0.000000
0.000000
0.000000
0.000000
-0.000000
-0.000000
-0.000000
-0.000000
-0.000000
-0.000000
-0.000000
-0.000000
-0.000000
0.000000
-0.000000
0.000000
-0.000000
0.000000
-0.000000
-0.000000
-0.000000
0.000000
-0.000000
0.000000
0.000000
0.000000
0.000000
0.000000
0.000000
0.000000
0.000000
0.000000
0.000000
0.000000
0.000000
0.000000
-0.000000
-0.000000
-0.000000
-0.000000
-0.000000
0.000000
-0.000000
0.000000
0.000000
-0.000000
0.000000
-0.000000
-0.000000
-0.000000
-0.000000
-0.000000
-0.000000
0.000000
-0.000000
0.000000
0.000000
0.000000
0.000000
0.000000
0.000000
0.000000
0.000000
0.000000
-0.000000
-0.000000
-0.000000
-0.000000
0.000000
0.000000
0.000000
0.000000
0.000000
0.000000
0.000000
0.000000
-0.000000
-0.000000
-0.000000
-0.000000
-0.000000
-0.000000
-0.000000
-0.000000
0.000000
0.000000
0.000000
0.000000
0.000000
-0.000000
0.000000
-0.000000
-0.000000
-0.000000
-0.000000
-0.000000
0.000000
0.000000
0.000000
0.000000
0.000000
0.000000
0.000000
0.000000
-0.000000
-0.000000
-0.000000
-0.000000
-0.000000
0.000000
-0.000000
0.000000
0.000000
0.000000
0.000000
0.000000
0.000000
0.000000
-0.000000
0.000000
0.000000
0.000000
0.000000
0.000000
-0.000000
-0.000000
-0.000000
-0.000000
-0.000000
0.000000
-0.000000
0.000000
0.000000
-0.000000
0.000000
0.000000
0.000000
0.000000
0.000000
0.000000
-0.000000
-0.000000
-0.000000
-0.000000
0.000000
-0.000000
0.000000
0.000000
0.000000
0.000000
0.000000
0.000000
0.000000
0.000000
0.000000
0.000000
-0.000000
-0.000000
-0.000000
0.000000
0.000000
0.000000
-0.000000
0.000000
0.000000
0.000000
0.000000
0.000000

SCALARS sigma_yz FLOAT 1
LOOKUP_TABLE default
0.000000
0.000000
0.000000
0.000000
0.000000
0.000000
0.000000
0.000000
0.000000
0.000000
0.000000
0.000000
0.000000
0.000000
0.000000
0.000000
0.000000
0.000000
0.000000
0.000000
0.000000
0.000000
0.000000
0.000000
0.000000
0.000000
0.000000
0.000000
0.000000
0.000000
0.000000
0.000000
0.000000
0.000000
0.000000
0.000000
0.000000
0.000000
0.000000
0.000000
0.000000
0.000000
0.000000
0.000000
0.000000
0.000000
0.000000
0.000000
0.000000
0.000000
0.000000
0.000000
0.000000
0.000000
0.000000
0.000000
0.000000
0.000000
0.000000
0.000000
0.000000
0.000000
0.000000
0.000000
0.000000
0.000000
0.000000
0.000000
0.000000
0.000000
0.000000
0.000000
0.000000
0.000000
0.000000
0.000000
0.000000
0.000000
0.000000
0.000000
0.000000
0.000000
0.000000
0.000000
0.000000
0.000000
0.000000
0.000000
0.000000
0.000000
0.000000
0.000000
0.000000
0.000000
0.000000
0.000000
0.000000
0.000000
0.000000
0.000000
0.000000
0.000000
0.000000
0.000000
0.000000
0.000000
0.000000
0.000000
0.000000
0.000000
0.000000
0.000000
0.000000
0.000000
0.000000
0.000000
0.000000
0.000000
0.000000
0.000000
0.000000
0.000000
0.000000
0.000000
0.000000
0.000000
0.000000
0.000000
0.000000
0.000000
0.000000
0.000000
0.000000
0.000000
0.000000
0.000000
0.000000
0.000000
0.000000
0.000000
0.000000
0.000000
0.000000
0.000000
0.000000
0.000000
0.000000
0.000000
0.000000
0.000000
0.000000
0.000000
0.000000
0.000000
0.000000
0.000000
0.000000
0.000000
0.000000
0.000000
0.000000
0.000000
0.000000
0.000000
0.000000
0.000000
0.000000
0.000000
0.000000
0.000000
0.000000
0.000000
0.000000
0.000000
0.000000
0.000000
0.000000
0.000000
0.000000
0.000000
0.000000
0.000000
0.000000
0.000000
0.000000
0.000000
0.000000
0.000000
0.000000
0.000000
0.000000
0.000000
0.000000
0.000000
0.000000
0.000000
0.000000
0.000000
0.000000
0.000000
0.000000
0.000000
0.000000
0.000000
0.000000
0.000000
0.000000
0.000000
0.000000
0.000000
0.000000
0.000000
0.000000
0.000000
0.000000
0.000000
0.000000
0.000000
0.000000
0.000000
0.000000
0.000000
0.000000
0.000000
0.000000
0.000000
0.000000
0.000000
0.000000
0.000000
0.000000
0.000000
0.000000
0.000000
0.000000
0.000000
0.000000
0.000000
0.000000
0.000000
0.000000
0.000000
0.000000
0.000000
0.000000
0.000000
0.000000
0.000000
0.000000
0.000000
0.000000
0.000000
0.000000
0.000000
0.000000
0.000000

SCALARS sigma_zx FLOAT 1
LOOKUP_TABLE default
0.000000
0.000000
0.000000
0.000000
0.000000
0.000000
0.000000
0.000000
0.000000
0.000000
0.000000
0.000000
0.000000
0.000000
0.000000
0.000000
0.000000
0.000000
0.000000
0.000000
0.000000
0.000000
0.000000
0.000000
0.000000
0.000000
0.000000
0.000000
0.000000
0.000000
0.000000
0.000000
0.000000
0.000000
0.000000
0.000000
0.000000
0.000000
0.000000
0.000000
0.000000
0.000000
0.000000
0.000000
0.000000
0.000000
0.000000
0.000000
0.000000
0.000000
0.000000
0.000000
0.000000
0.000000
0.000000
0.000000
0.000000
0.000000
0.000000
0.000000
0.000000
0.000000
0.000000
0.000000
0.000000
0.000000
0.000000
0.000000
0.000000
0.000000
0.000000
0.000000
0.000000
0.000000
0.000000
0.000000
0.000000
0.000000
0.000000
0.000000
0.000000
0.000000
0.000000
0.000000
0.000000
0.000000
0.000000
0.000000
0.000000
0.000000
0.000000
0.000000
0.000000
0.000000
0.000000
0.000000
0.000000
0.000000
0.000000
0.000000
0.000000
0.000000
0.000000
0.000000
0.000000
0.000000
0.000000
0.000000
0.000000
0.000000
0.000000
0.000000
0.000000
0.000000
0.000000
0.000000
0.000000
0.000000
0.000000
0.000000
0.000000
0.000000
0.000000
0.000000
0.000000
0.000000
0.000000
0.000000
0.000000
0.000000
0.000000
0.000000
0.000000
0.000000
0.000000
0.000000
0.000000
0.000000
0.000000
0.000000
0.000000
0.000000
0.000000
0.000000
0.000000
0.000000
0.000000
0.000000
0.000000
0.000000
0.000000
0.000000
0.000000
0.000000
0.000000
0.000000
0.000000
0.000000
0.000000
0.000000
0.000000
0.000000
0.000000
0.000000
0.000000
0.000000
0.000000
0.000000
0.000000
0.000000
0.000000
0.000000
0.000000
0.000000
0.000000
0.000000
0.000000
0.000000
0.000000
0.000000
0.000000
0.000000
0.000000
0.000000
0.000000
0.000000
0.000000
0.000000
0.000000
0.000000
0.000000
0.000000
0.000000
0.000000
0.000000
0.000000
0.000000
0.000000
0.000000
0.000000
0.000000
0.000000
0.000000
0.000000
0.000000
0.000000
0.000000
0.000000
0.000000
0.000000
0.000000
0.000000
0.000000
0.000000
0.000000
0.000000
0.000000
0.000000
0.000000
0.000000
0.000000
0.000000
0.000000
0.000000
0.000000
0.000000
0.000000
0.000000
0.000000
0.000000
0.000000
0.000000
0.000000
0.000000
0.000000
0.000000
0.000000
0.000000
0.000000
0.000000
0.000000
0.000000
0.000000
0.000000
0.000000
0.000000
0.000000
0.000000
0.000000
0.000000
0.000000
0.000000
0.000000
0.000000
0.000000
0.000000

SCALARS u_x FLOAT 1
LOOKUP_TABLE default
0.000000
0.000000
0.000000
0.000000
0.000000
0.000000
0.000000
0.000000
0.000000
0.000000
0.000000
0.000000
0.000000
0.000000
0.000000
0.000000
0.000000
0.000000
0.000000
0.000000
0.000000
0.000000
0.000000
0.000000
0.000000
0.000000
0.000000
0.000000
0.000000
0.000000
0.000000
0.000000
0.000000
0.000000
0.000000
0.000000
0.000000
0.000000
0.000000
0.000000
0.000000
0.000000
0.000000
0.000000
0.000000
0.000000
0.000000
0.000000
0.000000
0.000000
0.000000
0.000000
0.000000
0.000000
0.000000
0.000000
0.000000
0.000000
0.000000
0.000000
0.000000
0.000000
0.000000
0.000000
0.000000
0.000000
0.000000
0.000000
0.000000
0.000000
0.000000
0.000000
0.000000
0.000000
0.000000
0.000000
0.000000
0.000000
0.000000
0.000000
0.000000
0.000000
0.000000
0.000000
0.000000
0.000000
0.000000
0.000000
0.000000
0.000000
0.000000
0.000000
0.000000
0.000000
0.000000
0.000000
0.000000
0.000000
0.000000
0.000000
0.000000
0.000000
0.000000
0.000000
0.000000
0.000000
0.000000
0.000000
0.000000
0.000000
0.000000
0.000000
0.000000
0.000000
0.000000
0.000000
0.000000
0.000000
0.000000
0.000000
0.000000
0.000000
0.000000
0.000000
0.000000
0.000000
0.000000
0.000000
0.000000
0.000000
0.000000
0.000000
0.000000
0.000000
0.000000
0.000000
0.000000
0.000000
0.000000
0.000000
0.000000
0.000000
0.000000
0.000000
0.000000
0.000000
0.000000
0.000000
0.000000
0.000000
0.000000
0.000000
0.000000
0.000000
0.000000
0.000000
0.000000
0.000000
0.000000
0.000000
0.000000
0.000000
0.000000
0.000000
0.000000
0.000000
0.000000
0.000000
0.000000
0.000000
0.000000
0.000000
0.000000
0.000000
0.000000
0.000000
0.000000
0.000000
0.000000
0.000000
0.000000
0.000000
0.000000
0.000000
0.000000
0.000000
0.000000
0.000000
0.000000
0.000000
0.000000
0.000000
0.000000
0.000000
0.000000
0.000000
0.000000
0.000000
0.000000
0.000000
0.000000
0.000000
0.000000
0.000000
0.000000
0.000000
0.000000
0.000000
0.000000
0.000000
0.000000
0.000000
0.000000
0.000000
0.000000
0.000000
0.000000
0.000000
0.000000
0.000000
0.000000
0.000000
0.000000
0.000000
0.000000
0.000000
0.000000
0.000000
0.000000
0.000000
0.000000
0.000000
0.000000
0.000000
0.000000
0.000000
0.000000
0.000000
0.000000
0.000000
0.000000
0.000000
0.000000
0.000000
0.000000
0.000000
0.000000
0.000000
0.000000
0.000000
0.000000
0.000000
0.000000
0.000000
0.000000
0.000000

SCALARS u_y FLOAT 1
LOOKUP_TABLE default
-0.118563
-0.355689
-0.118563
-0.355689
-0.592603
-0.828820
-0.592603
-0.828820
-1.064355
-1.299133
-1.064355
-1.299133
-1.533393
-1.767089
-1.533393
-1.767089
-2.000187
-2.232586
-2.000187
-2.232586
-2.464311
-2.695433
-2.464311
-2.695433
-2.925960
-3.155808
-2.925960
-3.155808
-3.384988
-3.613460
-3.384988
-3.613460
-3.841286
-4.068445
-3.841286
-4.068445
-4.294911
-4.520653
-4.294911
-4.520653
-4.745648
-4.969970
-4.745648
-4.969970
-5.193578
-5.416487
-5.193578
-5.416487
-5.638636
-5.860085
-5.638636
-5.860085
-6.080754
-6.300708
-6.080754
-6.300708
-6.519809
-6.738107
-6.519809
-6.738107
-6.955675
-7.172456
-6.955675
-7.172456
-7.388420
-7.603510
-7.388420
-7.603510
-7.817886
-8.031351
-7.817886
-8.031351
-8.243992
-8.455715
-8.243992
-8.455715
-8.666633
-8.876702
-8.666633
-8.876702
-9.085816
-9.294140
-9.085816
-9.294140
-9.501399
-9.707863
-9.501399
-9.707863
-9.913296
-10.117844
-9.913296
-10.117844
-10.321420
-10.524014
-10.321420
-10.524014
-10.725637
-10.926171
-10.725637
-10.926171
-11.125736
-11.324285
-11.125736
-11.324285
-11.521772
-11.718302
-11.521772
-11.718302
-11.913626
-12.107966
-11.913626
-12.107966
-12.301128
-12.493210
-12.301128
-12.493210
-12.684172
-12.873968
-12.684172
-12.873968
-13.062583
-13.249907
-13.062583
-13.249907
-13.436060
-13.621011
-13.436060
-13.621011
-13.804700
-13.987314
-13.804700
-13.987314
-14.168499
-14.348427
-14.168499
-14.348427
-14.527003
-14.704009
-14.527003
-14.704009
-14.879910
-15.054280
-14.879910
-15.054280
-15.227362
-15.398915
-15.227362
-15.398915
-15.568976
-15.737545
-15.568976
-15.737545
-15.904498
-16.069952
-15.904498
-16.069952
-16.233995
-16.396253
-16.233995
-16.396253
-16.556993
-16.715945
-16.556993
-16.715945
-16.873313
-17.028867
-16.873313
-17.028867
-17.182446
-17.334552
-17.182446
-17.334552
-17.484479
-17.632763
-17.484479
-17.632763
-17.779014
-17.923345
-17.779014
-17.923345
-18.065536
-18.205730
-18.065536
-18.205730
-18.343844
-18.479780
-18.343844
-18.479780
-18.613410
-18.745165
-18.613410
-18.745165
-18.874117
-19.001046
-18.874117
-19.001046
-19.125293
-19.247485
-19.125293
-19.247485
-19.366958
-19.483634
-19.366958
-19.483634
-19.597875
-19.708985
-19.597875
-19.708985
-19.817384
-19.922661
-19.817384
-19.922661
-20.025414
-20.124771
-20.025414
-20.124771
-20.220670
-20.313601
-20.220670
-20.313601
-20.403151
-20.489434
-20.403151
-20.489434
-20.571407
-20.649742
-20.571407
-20.649742
-20.724514
-20.795494
-20.724514
-20.795494
-20.862271
-20.924262
-20.862271
-20.924262
-20.982117
-21.034597
-20.982117
-21.034597
-21.082850
-21.125645
-21.082850
-21.125645
-21.163850
-21.195933
-21.163850
-21.195933
-21.222700
-21.242362
-21.222700
-21.242362
-21.257269
-21.266019
-21.257269
-21.266019

