# vtk DataFile Version 2.0
MATLAB generated vtk file, WMC
ASCII
DATASET UNSTRUCTURED_GRID
POINTS 256 double
0.195312 0.071140 0.000000 
0.195312 0.213420 0.000000 
0.585938 0.071140 0.000000 
0.585938 0.213420 0.000000 
0.195312 0.355895 0.000000 
0.195312 0.499018 0.000000 
0.585938 0.355895 0.000000 
0.585938 0.499018 0.000000 
0.195312 0.642773 0.000000 
0.195312 0.787276 0.000000 
0.585938 0.642773 0.000000 
0.585938 0.787276 0.000000 
0.195312 0.932354 0.000000 
0.195312 1.077960 0.000000 
0.585938 0.932354 0.000000 
0.585938 1.077960 0.000000 
0.195312 1.224120 0.000000 
0.195312 1.370929 0.000000 
0.585938 1.224120 0.000000 
0.585938 1.370929 0.000000 
0.195312 1.518395 0.000000 
0.195312 1.666515 0.000000 
0.585938 1.518395 0.000000 
0.585938 1.666515 0.000000 
0.195312 1.815198 0.000000 
0.195312 1.964512 0.000000 
0.585938 1.815198 0.000000 
0.585938 1.964512 0.000000 
0.195312 2.114446 0.000000 
0.195312 2.265070 0.000000 
0.585938 2.114446 0.000000 
0.585938 2.265070 0.000000 
0.195312 2.416363 0.000000 
0.195312 2.568284 0.000000 
0.585938 2.416363 0.000000 
0.585938 2.568284 0.000000 
0.195312 2.720850 0.000000 
0.195312 2.874090 0.000000 
0.585938 2.720850 0.000000 
0.585938 2.874090 0.000000 
0.195312 3.028065 0.000000 
0.195312 3.182753 0.000000 
0.585938 3.028065 0.000000 
0.585938 3.182753 0.000000 
0.195312 3.338124 0.000000 
0.195312 3.494145 0.000000 
0.585938 3.338124 0.000000 
0.585938 3.494145 0.000000 
0.195312 3.650889 0.000000 
0.195312 3.808367 0.000000 
0.585938 3.650889 0.000000 
0.585938 3.808367 0.000000 
0.195312 3.966614 0.000000 
0.195312 4.125530 0.000000 
0.585938 3.966614 0.000000 
0.585938 4.125530 0.000000 
0.195312 4.285239 0.000000 
0.195312 4.445710 0.000000 
0.585938 4.285239 0.000000 
0.585938 4.445710 0.000000 
0.195312 4.606936 0.000000 
0.195312 4.768972 0.000000 
0.585938 4.606936 0.000000 
0.585938 4.768972 0.000000 
0.195312 4.931781 0.000000 
0.195312 5.095417 0.000000 
0.585938 4.931781 0.000000 
0.585938 5.095417 0.000000 
0.195312 5.259763 0.000000 
0.195312 5.425030 0.000000 
0.585938 5.259763 0.000000 
0.585938 5.425030 0.000000 
0.195312 5.591081 0.000000 
0.195312 5.757988 0.000000 
0.585938 5.591081 0.000000 
0.585938 5.757988 0.000000 
0.195312 5.925697 0.000000 
0.195312 6.094281 0.000000 
0.585938 5.925697 0.000000 
0.585938 6.094281 0.000000 
0.195312 6.263796 0.000000 
0.195312 6.434066 0.000000 
0.585938 6.263796 0.000000 
0.585938 6.434066 0.000000 
0.195312 6.605341 0.000000 
0.195312 6.777420 0.000000 
0.585938 6.605341 0.000000 
0.585938 6.777420 0.000000 
0.195312 6.950563 0.000000 
0.195312 7.124569 0.000000 
0.585938 6.950563 0.000000 
0.585938 7.124569 0.000000 
0.195312 7.299494 0.000000 
0.195312 7.475370 0.000000 
0.585938 7.299494 0.000000 
0.585938 7.475370 0.000000 
0.195312 7.652188 0.000000 
0.195312 7.830094 0.000000 
0.585938 7.652188 0.000000 
0.585938 7.830094 0.000000 
0.195312 8.008934 0.000000 
0.195312 8.188798 0.000000 
0.585938 8.008934 0.000000 
0.585938 8.188798 0.000000 
0.195312 8.369732 0.000000 
0.195312 8.551608 0.000000 
0.585938 8.369732 0.000000 
0.585938 8.551608 0.000000 
0.195312 8.734636 0.000000 
0.195312 8.918649 0.000000 
0.585938 8.734636 0.000000 
0.585938 8.918649 0.000000 
0.195312 9.103840 0.000000 
0.195312 9.290141 0.000000 
0.585938 9.103840 0.000000 
0.585938 9.290141 0.000000 
0.195312 9.477549 0.000000 
0.195312 9.666070 0.000000 
0.585938 9.477549 0.000000 
0.585938 9.666070 0.000000 
0.195312 9.855718 0.000000 
0.195312 10.046581 0.000000 
0.585938 9.855718 0.000000 
0.585938 10.046581 0.000000 
0.195312 10.238586 0.000000 
0.195312 10.431863 0.000000 
0.585938 10.238586 0.000000 
0.585938 10.431863 0.000000 
0.195312 10.626474 0.000000 
0.195312 10.822243 0.000000 
0.585938 10.626474 0.000000 
0.585938 10.822243 0.000000 
0.195312 11.019402 0.000000 
0.195312 11.217737 0.000000 
0.585938 11.019402 0.000000 
0.585938 11.217737 0.000000 
0.195312 11.417364 0.000000 
0.195312 11.618511 0.000000 
0.585938 11.417364 0.000000 
0.585938 11.618511 0.000000 
0.195312 11.820864 0.000000 
0.195312 12.024737 0.000000 
0.585938 11.820864 0.000000 
0.585938 12.024737 0.000000 
0.195312 12.229906 0.000000 
0.195312 12.436543 0.000000 
0.585938 12.229906 0.000000 
0.585938 12.436543 0.000000 
0.195312 12.644625 0.000000 
0.195312 12.854239 0.000000 
0.585938 12.644625 0.000000 
0.585938 12.854239 0.000000 
0.195312 13.065503 0.000000 
0.195312 13.278406 0.000000 
0.585938 13.065503 0.000000 
0.585938 13.278406 0.000000 
0.195312 13.492717 0.000000 
0.195312 13.708740 0.000000 
0.585938 13.492717 0.000000 
0.585938 13.708740 0.000000 
0.195312 13.926261 0.000000 
0.195312 14.145593 0.000000 
0.585938 13.926261 0.000000 
0.585938 14.145593 0.000000 
0.195312 14.366539 0.000000 
0.195312 14.589326 0.000000 
0.585938 14.366539 0.000000 
0.585938 14.589326 0.000000 
0.195312 14.814142 0.000000 
0.195312 15.040485 0.000000 
0.585938 14.814142 0.000000 
0.585938 15.040485 0.000000 
0.195312 15.268960 0.000000 
0.195312 15.499117 0.000000 
0.585938 15.268960 0.000000 
0.585938 15.499117 0.000000 
0.195312 15.731302 0.000000 
0.195312 15.965377 0.000000 
0.585938 15.731302 0.000000 
0.585938 15.965377 0.000000 
0.195312 16.201673 0.000000 
0.195312 16.440043 0.000000 
0.585938 16.201673 0.000000 
0.585938 16.440043 0.000000 
0.195312 16.680537 0.000000 
0.195312 16.923272 0.000000 
0.585938 16.680537 0.000000 
0.585938 16.923272 0.000000 
0.195312 17.168418 0.000000 
0.195312 17.415494 0.000000 
0.585938 17.168418 0.000000 
0.585938 17.415494 0.000000 
0.195312 17.665333 0.000000 
0.195312 17.917437 0.000000 
0.585938 17.665333 0.000000 
0.585938 17.917437 0.000000 
0.195312 18.172298 0.000000 
0.195312 18.429377 0.000000 
0.585938 18.172298 0.000000 
0.585938 18.429377 0.000000 
0.195312 18.689340 0.000000 
0.195312 18.952065 0.000000 
0.585938 18.689340 0.000000 
0.585938 18.952065 0.000000 
0.195312 19.217253 0.000000 
0.195312 19.485490 0.000000 
0.585938 19.217253 0.000000 
0.585938 19.485490 0.000000 
0.195312 19.756656 0.000000 
0.195312 20.031285 0.000000 
0.585938 19.756656 0.000000 
0.585938 20.031285 0.000000 
0.195312 20.308784 0.000000 
0.195312 20.589531 0.000000 
0.585938 20.308784 0.000000 
0.585938 20.589531 0.000000 
0.195312 20.873846 0.000000 
0.195312 21.161524 0.000000 
0.585938 20.873846 0.000000 
0.585938 21.161524 0.000000 
0.195312 21.452833 0.000000 
0.195312 21.747418 0.000000 
0.585938 21.452833 0.000000 
0.585938 21.747418 0.000000 
0.195312 22.046209 0.000000 
0.195312 22.349180 0.000000 
0.585938 22.046209 0.000000 
0.585938 22.349180 0.000000 
0.195312 22.656683 0.000000 
0.195312 22.968314 0.000000 
0.585938 22.656683 0.000000 
0.585938 22.968314 0.000000 
0.195312 23.284136 0.000000 
0.195312 23.604607 0.000000 
0.585938 23.284136 0.000000 
0.585938 23.604607 0.000000 
0.195312 23.929637 0.000000 
0.195312 24.260544 0.000000 
0.585938 23.929637 0.000000 
0.585938 24.260544 0.000000 
0.195312 24.596411 0.000000 
0.195312 24.938798 0.000000 
0.585938 24.596411 0.000000 
0.585938 24.938798 0.000000 
0.195312 25.286305 0.000000 
0.195312 25.640296 0.000000 
0.585938 25.286305 0.000000 
0.585938 25.640296 0.000000 
0.195312 26.000100 0.000000 
0.195312 26.368115 0.000000 
0.585938 26.000100 0.000000 
0.585938 26.368115 0.000000 
0.195312 26.741874 0.000000 
0.195312 27.122300 0.000000 
0.585938 26.741874 0.000000 
0.585938 27.122300 0.000000 

POINT_DATA 256
SCALARS sigma_xx FLOAT 1
LOOKUP_TABLE default
0.000000
0.000000
0.000000
0.000000
0.000000
-0.000000
0.000000
-0.000000
-0.000000
-0.000000
-0.000000
-0.000000
-0.000000
-0.000000
-0.000000
-0.000000
-0.000000
-0.000000
-0.000000
-0.000000
0.000000
0.000000
0.000000
0.000000
0.000000
-0.000000
0.000000
-0.000000
0.000000
-0.000000
0.000000
-0.000000
-0.000000
-0.000000
-0.000000
-0.000000
0.000000
-0.000000
0.000000
-0.000000
-0.000000
0.000000
0.000000
0.000000
-0.000000
-0.000000
-0.000000
-0.000000
-0.000000
-0.000000
-0.000000
-0.000000
-0.000000
0.000000
-0.000000
0.000000
-0.000000
-0.000000
-0.000000
-0.000000
-0.000000
-0.000000
-0.000000
-0.000000
-0.000000
0.000000
-0.000000
0.000000
-0.000000
-0.000000
-0.000000
-0.000000
-0.000000
-0.000000
-0.000000
-0.000000
-0.000000
-0.000000
-0.000000
-0.000000
0.000000
-0.000000
0.000000
-0.000000
-0.000000
-0.000000
-0.000000
-0.000000
0.000000
0.000000
0.000000
0.000000
-0.000000
-0.000000
-0.000000
-0.000000
-0.000000
-0.000000
-0.000000
-0.000000
-0.000000
-0.000000
-0.000000
-0.000000
-0.000000
0.000000
-0.000000
0.000000
-0.000000
0.000000
-0.000000
0.000000
-0.000000
-0.000000
-0.000000
-0.000000
-0.000000
-0.000000
-0.000000
-0.000000
-0.000000
-0.000000
-0.000000
-0.000000
-0.000000
-0.000000
-0.000000
-0.000000
-0.000000
-0.000000
-0.000000
-0.000000
-0.000000
-0.000000
-0.000000
-0.000000
-0.000000
-0.000000
-0.000000
-0.000000
-0.000000
-0.000000
-0.000000
-0.000000
-0.000000
-0.000000
-0.000000
-0.000000
-0.000000
-0.000000
-0.000000
-0.000000
0.000000
-0.000000
0.000000
0.000000
-0.000000
-0.000000
-0.000000
-0.000000
-0.000000
-0.000000
-0.000000
-0.000000
-0.000000
-0.000000
-0.000000
-0.000000
-0.000000
0.000000
-0.000000
0.000000
-0.000000
-0.000000
-0.000000
-0.000000
-0.000000
-0.000000
-0.000000
-0.000000
-0.000000
-0.000000
0.000000
-0.000000
0.000000
-0.000000
0.000000
-0.000000
0.000000
-0.000000
-0.000000
0.000000
-0.000000
-0.000000
-0.000000
-0.000000
-0.000000
-0.000000
-0.000000
-0.000000
-0.000000
-0.000000
0.000000
-0.000000
-0.000000
0.000000
-0.000000
0.000000
-0.000000
-0.000000
-0.000000
-0.000000
-0.000000
-0.000000
-0.000000
0.000000
-0.000000
-0.000000
-0.000000
-0.000000
-0.000000
0.000000
-0.000000
-0.000000
0.000000
-0.000000
0.000000
-0.000000
-0.000000
-0.000000
-0.000000
-0.000000
-0.000000
-0.000000
-0.000000
-0.000000
-0.000000
-0.000000
-0.000000
-0.000000
-0.000000
-0.000000
-0.000000
-0.000000
-0.000000
-0.000000
-0.000000
0.000000
-0.000000
-0.000000
0.000000
-0.000000
0.000000
0.000000
0.000000
0.000000

SCALARS sigma_yy FLOAT 1
LOOKUP_TABLE default
-27727.970582
-27727.970582
-27727.970582
-27727.970582
-27527.939730
-27296.875561
-27527.939730
-27296.875561
-27011.971593
-26772.685283
-27011.971593
-26772.685283
-26562.455895
-26386.406974
-26562.455895
-26386.406974
-26151.338576
-25929.420697
-26151.338576
-25929.420697
-25676.751690
-25485.047238
-25676.751690
-25485.047238
-25263.283507
-25061.123213
-25263.283507
-25061.123213
-24825.717095
-24604.405060
-24825.717095
-24604.405060
-24373.831278
-24187.501050
-24373.831278
-24187.501050
-23953.899639
-23750.668238
-23953.899639
-23750.668238
-23495.097971
-23291.911759
-23495.097971
-23291.911759
-23063.229277
-22884.433549
-23063.229277
-22884.433549
-22638.731095
-22429.799434
-22638.731095
-22429.799434
-22191.980246
-22001.260976
-22191.980246
-22001.260976
-21756.384733
-21560.332720
-21756.384733
-21560.332720
-21309.244560
-21114.924943
-21309.244560
-21114.924943
-20885.985358
-20669.330077
-20885.985358
-20669.330077
-20454.435454
-20234.526353
-20454.435454
-20234.526353
-20011.686882
-19796.961383
-20011.686882
-19796.961383
-19579.695637
-19363.960262
-19579.695637
-19363.960262
-19129.299611
-18936.671963
-19129.299611
-18936.671963
-18703.449261
-18492.593034
-18703.449261
-18492.593034
-18236.078074
-18059.247797
-18236.078074
-18059.247797
-17825.002405
-17620.360185
-17825.002405
-17620.360185
-17391.281228
-17167.460167
-17391.281228
-17167.460167
-16948.451675
-16736.145093
-16948.451675
-16736.145093
-16507.113125
-16306.284524
-16507.113125
-16306.284524
-16082.620002
-15869.236931
-16082.620002
-15869.236931
-15621.928576
-15422.731809
-15621.928576
-15422.731809
-15191.745247
-14995.670480
-15191.745247
-14995.670480
-14768.264036
-14559.861171
-14768.264036
-14559.861171
-14322.349669
-14121.148117
-14322.349669
-14121.148117
-13868.479674
-13679.821391
-13868.479674
-13679.821391
-13435.821869
-13247.008485
-13435.821869
-13247.008485
-13005.660964
-12802.280302
-13005.660964
-12802.280302
-12573.244255
-12364.491202
-12573.244255
-12364.491202
-12144.496861
-11931.707872
-12144.496861
-11931.707872
-11712.438460
-11492.256734
-11712.438460
-11492.256734
-11238.181335
-11039.606111
-11238.181335
-11039.606111
-10832.613537
-10603.658030
-10832.613537
-10603.658030
-10410.579109
-10169.165545
-10410.579109
-10169.165545
-9965.354850
-9716.535723
-9965.354850
-9716.535723
-9512.702330
-9290.429478
-9512.702330
-9290.429478
-9072.822029
-8866.803268
-9072.822029
-8866.803268
-8643.638493
-8429.590910
-8643.638493
-8429.590910
-8207.422228
-7980.952515
-8207.422228
-7980.952515
-7775.903454
-7536.425315
-7775.903454
-7536.425315
-7330.078468
-7122.516919
-7330.078468
-7122.516919
-6875.844148
-6678.971358
-6875.844148
-6678.971358
-6433.959006
-6253.943253
-6433.959006
-6253.943253
-5992.177255
-5809.932280
-5992.177255
-5809.932280
-5588.049384
-5370.697468
-5588.049384
-5370.697468
-5138.065362
-4906.581436
-5138.065362
-4906.581436
-4701.100195
-4485.571802
-4701.100195
-4485.571802
-4255.516813
-4047.103986
-4255.516813
-4047.103986
-3828.845725
-3639.432225
-3828.845725
-3639.432225
-3379.025433
-3168.332077
-3379.025433
-3168.332077
-2925.881547
-2739.181228
-2925.881547
-2739.181228
-2508.260927
-2327.142664
-2508.260927
-2327.142664
-2076.480570
-1865.505665
-2076.480570
-1865.505665
-1630.043546
-1407.831713
-1630.043546
-1407.831713
-1201.911063
-987.186512
-1201.911063
-987.186512
-774.187994
-535.289856
-774.187994
-535.289856
-347.646975
-86.446539
-347.646975
-86.446539

SCALARS sigma_zz FLOAT 1
LOOKUP_TABLE default
0.000000
0.000000
0.000000
0.000000
0.000000
0.000000
0.000000
0.000000
0.000000
0.000000
0.000000
0.000000
0.000000
0.000000
0.000000
0.000000
0.000000
0.000000
0.000000
0.000000
0.000000
0.000000
0.000000
0.000000
0.000000
0.000000
0.000000
0.000000
0.000000
0.000000
0.000000
0.000000
0.000000
0.000000
0.000000
0.000000
0.000000
0.000000
0.000000
0.000000
0.000000
0.000000
0.000000
0.000000
0.000000
0.000000
0.000000
0.000000
0.000000
0.000000
0.000000
0.000000
0.000000
0.000000
0.000000
0.000000
0.000000
0.000000
0.000000
0.000000
0.000000
0.000000
0.000000
0.000000
0.000000
0.000000
0.000000
0.000000
0.000000
0.000000
0.000000
0.000000
0.000000
0.000000
0.000000
0.000000
0.000000
0.000000
0.000000
0.000000
0.000000
0.000000
0.000000
0.000000
0.000000
0.000000
0.000000
0.000000
0.000000
0.000000
0.000000
0.000000
0.000000
0.000000
0.000000
0.000000
0.000000
0.000000
0.000000
0.000000
0.000000
0.000000
0.000000
0.000000
0.000000
0.000000
0.000000
0.000000
0.000000
0.000000
0.000000
0.000000
0.000000
0.000000
0.000000
0.000000
0.000000
0.000000
0.000000
0.000000
0.000000
0.000000
0.000000
0.000000
0.000000
0.000000
0.000000
0.000000
0.000000
0.000000
0.000000
0.000000
0.000000
0.000000
0.000000
0.000000
0.000000
0.000000
0.000000
0.000000
0.000000
0.000000
0.000000
0.000000
0.000000
0.000000
0.000000
0.000000
0.000000
0.000000
0.000000
0.000000
0.000000
0.000000
0.000000
0.000000
0.000000
0.000000
0.000000
0.000000
0.000000
0.000000
0.000000
0.000000
0.000000
0.000000
0.000000
0.000000
0.000000
0.000000
0.000000
0.000000
0.000000
0.000000
0.000000
0.000000
0.000000
0.000000
0.000000
0.000000
0.000000
0.000000
0.000000
0.000000
0.000000
0.000000
0.000000
0.000000
0.000000
0.000000
0.000000
0.000000
0.000000
0.000000
0.000000
0.000000
0.000000
0.000000
0.000000
0.000000
0.000000
0.000000
0.000000
0.000000
0.000000
0.000000
0.000000
0.000000
0.000000
0.000000
0.000000
0.000000
0.000000
0.000000
0.000000
0.000000
0.000000
0.000000
0.000000
0.000000
0.000000
0.000000
0.000000
0.000000
0.000000
0.000000
0.000000
0.000000
0.000000
0.000000
0.000000
0.000000
0.000000
0.000000
0.000000
0.000000
0.000000
0.000000
0.000000
0.000000
0.000000
0.000000
0.000000
0.000000
0.000000
0.000000
0.000000
0.000000
0.000000
0.000000
0.000000
0.000000
0.000000
0.000000
0.000000
0.000000

SCALARS sigma_xy FLOAT 1
LOOKUP_TABLE default
0.000000
0.000000
0.000000
0.000000
0.000000
-0.000000
0.000000
-0.000000
-0.000000
-0.000000
-0.000000
-0.000000
0.000000
0.000000
0.000000
0.000000
0.000000
0.000000
0.000000
0.000000
0.000000
0.000000
0.000000
0.000000
0.000000
-0.000000
0.000000
-0.000000
0.000000
0.000000
0.000000
0.000000
0.000000
0.000000
0.000000
0.000000
0.000000
-0.000000
0.000000
-0.000000
0.000000
0.000000
0.000000
0.000000
-0.000000
-0.000000
-0.000000
-0.000000
-0.000000
-0.000000
-0.000000
-0.000000
-0.000000
0.000000
-0.000000
0.000000
0.000000
0.000000
0.000000
0.000000
0.000000
0.000000
0.000000
0.000000
0.000000
0.000000
0.000000
0.000000
-0.000000
-0.000000
-0.000000
-0.000000
-0.000000
0.000000
-0.000000
0.000000
-0.000000
-0.000000
-0.000000
-0.000000
0.000000
-0.000000
0.000000
-0.000000
0.000000
0.000000
0.000000
0.000000
0.000000
0.000000
0.000000
0.000000
-0.000000
0.000000
-0.000000
0.000000
0.000000
0.000000
0.000000
0.000000
0.000000
0.000000
0.000000
0.000000
-0.000000
0.000000
-0.000000
0.000000
-0.000000
0.000000
-0.000000
0.000000
0.000000
-0.000000
0.000000
-0.000000
-0.000000
-0.000000
-0.000000
-0.000000
-0.000000
0.000000
-0.000000
0.000000
-0.000000
-0.000000
-0.000000
-0.000000
-0.000000
0.000000
-0.000000
0.000000
0.000000
-0.000000
0.000000
-0.000000
-0.000000
-0.000000
-0.000000
-0.000000
0.000000
0.000000
0.000000
0.000000
-0.000000
-0.000000
-0.000000
-0.000000
0.000000
-0.000000
0.000000
-0.000000
0.000000
-0.000000
0.000000
0.000000
0.000000
0.000000
0.000000
0.000000
-0.000000
-0.000000
-0.000000
-0.000000
-0.000000
0.000000
-0.000000
0.000000
0.000000
0.000000
0.000000
0.000000
-0.000000
0.000000
-0.000000
0.000000
0.000000
-0.000000
-0.000000
-0.000000
-0.000000
0.000000
0.000000
0.000000
0.000000
-0.000000
0.000000
-0.000000
0.000000
0.000000
-0.000000
0.000000
0.000000
-0.000000
0.000000
-0.000000
0.000000
0.000000
0.000000
0.000000
-0.000000
-0.000000
0.000000
-0.000000
-0.000000
0.000000
-0.000000
0.000000
0.000000
0.000000
0.000000
0.000000
0.000000
-0.000000
0.000000
0.000000
-0.000000
0.000000
-0.000000
0.000000
-0.000000
0.000000
-0.000000
0.000000
0.000000
-0.000000
0.000000
-0.000000
-0.000000
-0.000000
-0.000000
-0.000000
0.000000
-0.000000
0.000000
-0.000000
0.000000
0.000000
0.000000
0.000000
0.000000
0.000000
0.000000
0.000000
-0.000000
-0.000000
-0.000000
0.000000
0.000000
0.000000
0.000000
0.000000
0.000000
0.000000
0.000000
0.000000

SCALARS sigma_yz FLOAT 1
LOOKUP_TABLE default
0.000000
0.000000
0.000000
0.000000
0.000000
0.000000
0.000000
0.000000
0.000000
0.000000
0.000000
0.000000
0.000000
0.000000
0.000000
0.000000
0.000000
0.000000
0.000000
0.000000
0.000000
0.000000
0.000000
0.000000
0.000000
0.000000
0.000000
0.000000
0.000000
0.000000
0.000000
0.000000
0.000000
0.000000
0.000000
0.000000
0.000000
0.000000
0.000000
0.000000
0.000000
0.000000
0.000000
0.000000
0.000000
0.000000
0.000000
0.000000
0.000000
0.000000
0.000000
0.000000
0.000000
0.000000
0.000000
0.000000
0.000000
0.000000
0.000000
0.000000
0.000000
0.000000
0.000000
0.000000
0.000000
0.000000
0.000000
0.000000
0.000000
0.000000
0.000000
0.000000
0.000000
0.000000
0.000000
0.000000
0.000000
0.000000
0.000000
0.000000
0.000000
0.000000
0.000000
0.000000
0.000000
0.000000
0.000000
0.000000
0.000000
0.000000
0.000000
0.000000
0.000000
0.000000
0.000000
0.000000
0.000000
0.000000
0.000000
0.000000
0.000000
0.000000
0.000000
0.000000
0.000000
0.000000
0.000000
0.000000
0.000000
0.000000
0.000000
0.000000
0.000000
0.000000
0.000000
0.000000
0.000000
0.000000
0.000000
0.000000
0.000000
0.000000
0.000000
0.000000
0.000000
0.000000
0.000000
0.000000
0.000000
0.000000
0.000000
0.000000
0.000000
0.000000
0.000000
0.000000
0.000000
0.000000
0.000000
0.000000
0.000000
0.000000
0.000000
0.000000
0.000000
0.000000
0.000000
0.000000
0.000000
0.000000
0.000000
0.000000
0.000000
0.000000
0.000000
0.000000
0.000000
0.000000
0.000000
0.000000
0.000000
0.000000
0.000000
0.000000
0.000000
0.000000
0.000000
0.000000
0.000000
0.000000
0.000000
0.000000
0.000000
0.000000
0.000000
0.000000
0.000000
0.000000
0.000000
0.000000
0.000000
0.000000
0.000000
0.000000
0.000000
0.000000
0.000000
0.000000
0.000000
0.000000
0.000000
0.000000
0.000000
0.000000
0.000000
0.000000
0.000000
0.000000
0.000000
0.000000
0.000000
0.000000
0.000000
0.000000
0.000000
0.000000
0.000000
0.000000
0.000000
0.000000
0.000000
0.000000
0.000000
0.000000
0.000000
0.000000
0.000000
0.000000
0.000000
0.000000
0.000000
0.000000
0.000000
0.000000
0.000000
0.000000
0.000000
0.000000
0.000000
0.000000
0.000000
0.000000
0.000000
0.000000
0.000000
0.000000
0.000000
0.000000
0.000000
0.000000
0.000000
0.000000
0.000000
0.000000
0.000000
0.000000
0.000000
0.000000
0.000000
0.000000
0.000000
0.000000
0.000000
0.000000
0.000000
0.000000

SCALARS sigma_zx FLOAT 1
LOOKUP_TABLE default
0.000000
0.000000
0.000000
0.000000
0.000000
0.000000
0.000000
0.000000
0.000000
0.000000
0.000000
0.000000
0.000000
0.000000
0.000000
0.000000
0.000000
0.000000
0.000000
0.000000
0.000000
0.000000
0.000000
0.000000
0.000000
0.000000
0.000000
0.000000
0.000000
0.000000
0.000000
0.000000
0.000000
0.000000
0.000000
0.000000
0.000000
0.000000
0.000000
0.000000
0.000000
0.000000
0.000000
0.000000
0.000000
0.000000
0.000000
0.000000
0.000000
0.000000
0.000000
0.000000
0.000000
0.000000
0.000000
0.000000
0.000000
0.000000
0.000000
0.000000
0.000000
0.000000
0.000000
0.000000
0.000000
0.000000
0.000000
0.000000
0.000000
0.000000
0.000000
0.000000
0.000000
0.000000
0.000000
0.000000
0.000000
0.000000
0.000000
0.000000
0.000000
0.000000
0.000000
0.000000
0.000000
0.000000
0.000000
0.000000
0.000000
0.000000
0.000000
0.000000
0.000000
0.000000
0.000000
0.000000
0.000000
0.000000
0.000000
0.000000
0.000000
0.000000
0.000000
0.000000
0.000000
0.000000
0.000000
0.000000
0.000000
0.000000
0.000000
0.000000
0.000000
0.000000
0.000000
0.000000
0.000000
0.000000
0.000000
0.000000
0.000000
0.000000
0.000000
0.000000
0.000000
0.000000
0.000000
0.000000
0.000000
0.000000
0.000000
0.000000
0.000000
0.000000
0.000000
0.000000
0.000000
0.000000
0.000000
0.000000
0.000000
0.000000
0.000000
0.000000
0.000000
0.000000
0.000000
0.000000
0.000000
0.000000
0.000000
0.000000
0.000000
0.000000
0.000000
0.000000
0.000000
0.000000
0.000000
0.000000
0.000000
0.000000
0.000000
0.000000
0.000000
0.000000
0.000000
0.000000
0.000000
0.000000
0.000000
0.000000
0.000000
0.000000
0.000000
0.000000
0.000000
0.000000
0.000000
0.000000
0.000000
0.000000
0.000000
0.000000
0.000000
0.000000
0.000000
0.000000
0.000000
0.000000
0.000000
0.000000
0.000000
0.000000
0.000000
0.000000
0.000000
0.000000
0.000000
0.000000
0.000000
0.000000
0.000000
0.000000
0.000000
0.000000
0.000000
0.000000
0.000000
0.000000
0.000000
0.000000
0.000000
0.000000
0.000000
0.000000
0.000000
0.000000
0.000000
0.000000
0.000000
0.000000
0.000000
0.000000
0.000000
0.000000
0.000000
0.000000
0.000000
0.000000
0.000000
0.000000
0.000000
0.000000
0.000000
0.000000
0.000000
0.000000
0.000000
0.000000
0.000000
0.000000
0.000000
0.000000
0.000000
0.000000
0.000000
0.000000
0.000000
0.000000
0.000000
0.000000
0.000000
0.000000
0.000000
0.000000

SCALARS u_x FLOAT 1
LOOKUP_TABLE default
0.000000
0.000000
0.000000
0.000000
0.000000
0.000000
0.000000
0.000000
0.000000
0.000000
0.000000
0.000000
0.000000
0.000000
0.000000
0.000000
0.000000
0.000000
0.000000
0.000000
0.000000
0.000000
0.000000
0.000000
0.000000
0.000000
0.000000
0.000000
0.000000
0.000000
0.000000
0.000000
0.000000
0.000000
0.000000
0.000000
0.000000
0.000000
0.000000
0.000000
0.000000
0.000000
0.000000
0.000000
0.000000
0.000000
0.000000
0.000000
0.000000
0.000000
0.000000
0.000000
0.000000
0.000000
0.000000
0.000000
0.000000
0.000000
0.000000
0.000000
0.000000
0.000000
0.000000
0.000000
0.000000
0.000000
0.000000
0.000000
0.000000
0.000000
0.000000
0.000000
0.000000
0.000000
0.000000
0.000000
0.000000
0.000000
0.000000
0.000000
0.000000
0.000000
0.000000
0.000000
0.000000
0.000000
0.000000
0.000000
0.000000
0.000000
0.000000
0.000000
0.000000
0.000000
0.000000
0.000000
0.000000
0.000000
0.000000
0.000000
0.000000
0.000000
0.000000
0.000000
0.000000
0.000000
0.000000
0.000000
0.000000
0.000000
0.000000
0.000000
0.000000
0.000000
0.000000
0.000000
0.000000
0.000000
0.000000
0.000000
0.000000
0.000000
0.000000
0.000000
0.000000
0.000000
0.000000
0.000000
0.000000
0.000000
0.000000
0.000000
0.000000
0.000000
0.000000
0.000000
0.000000
0.000000
0.000000
0.000000
0.000000
0.000000
0.000000
0.000000
0.000000
0.000000
0.000000
0.000000
0.000000
0.000000
0.000000
0.000000
0.000000
0.000000
0.000000
0.000000
0.000000
0.000000
0.000000
0.000000
0.000000
0.000000
0.000000
0.000000
0.000000
0.000000
0.000000
0.000000
0.000000
0.000000
0.000000
0.000000
0.000000
0.000000
0.000000
0.000000
0.000000
0.000000
0.000000
0.000000
0.000000
0.000000
0.000000
0.000000
0.000000
0.000000
0.000000
0.000000
0.000000
0.000000
0.000000
0.000000
0.000000
0.000000
0.000000
0.000000
0.000000
0.000000
0.000000
0.000000
0.000000
0.000000
0.000000
0.000000
0.000000
0.000000
0.000000
0.000000
0.000000
0.000000
0.000000
0.000000
0.000000
0.000000
0.000000
0.000000
0.000000
0.000000
0.000000
0.000000
0.000000
0.000000
0.000000
0.000000
0.000000
0.000000
0.000000
0.000000
0.000000
0.000000
0.000000
0.000000
0.000000
0.000000
0.000000
0.000000
0.000000
0.000000
0.000000
0.000000
0.000000
0.000000
0.000000
0.000000
0.000000
0.000000
0.000000
0.000000
0.000000
0.000000
0.000000
0.000000
0.000000
0.000000
0.000000
0.000000

SCALARS u_y FLOAT 1
LOOKUP_TABLE default
-0.124173
-0.372518
-0.124173
-0.372518
-0.620667
-0.868170
-0.620667
-0.868170
-1.115040
-1.361161
-1.115040
-1.361161
-1.606708
-1.851728
-1.606708
-1.851728
-2.096192
-2.340009
-2.096192
-2.340009
-2.583168
-2.825672
-2.583168
-2.825672
-3.067614
-3.308926
-3.067614
-3.308926
-3.549617
-3.789618
-3.549617
-3.789618
-4.028950
-4.267654
-4.028950
-4.267654
-4.505713
-4.743098
-4.505713
-4.743098
-4.979748
-5.215684
-4.979748
-5.215684
-5.450939
-5.685543
-5.450939
-5.685543
-5.919424
-6.152571
-5.919424
-6.152571
-6.384949
-6.616658
-6.384949
-6.616658
-6.847573
-7.077728
-6.847573
-7.077728
-7.307126
-7.535716
-7.307126
-7.535716
-7.763531
-7.990521
-7.763531
-7.990521
-8.216800
-8.442158
-8.216800
-8.442158
-8.666732
-8.890449
-8.666732
-8.890449
-9.113365
-9.335406
-9.113365
-9.335406
-9.556517
-9.776871
-9.556517
-9.776871
-9.996222
-10.214767
-9.996222
-10.214767
-10.432250
-10.648869
-10.432250
-10.648869
-10.864569
-11.079317
-10.864569
-11.079317
-11.293124
-11.505843
-11.293124
-11.505843
-11.717629
-11.928390
-11.717629
-11.928390
-12.138081
-12.346829
-12.138081
-12.346829
-12.554427
-12.761039
-12.554427
-12.761039
-12.966472
-13.170796
-12.966472
-13.170796
-13.374013
-13.576117
-13.374013
-13.576117
-13.777095
-13.976857
-13.777095
-13.976857
-14.175476
-14.372824
-14.175476
-14.372824
-14.568839
-14.763695
-14.568839
-14.763695
-14.957161
-15.149450
-14.957161
-15.149450
-15.340449
-15.529927
-15.340449
-15.529927
-15.718198
-15.904950
-15.718198
-15.904950
-16.090406
-16.274395
-16.090406
-16.274395
-16.456938
-16.637948
-16.456938
-16.637948
-16.817310
-16.995032
-16.817310
-16.995032
-17.171345
-17.345948
-17.171345
-17.345948
-17.519051
-17.690345
-17.519051
-17.690345
-17.860024
-18.027861
-17.860024
-18.027861
-18.193671
-18.357952
-18.193671
-18.357952
-18.520103
-18.680570
-18.520103
-18.680570
-18.839010
-18.995560
-18.839010
-18.995560
-19.149890
-19.302144
-19.149890
-19.302144
-19.452275
-19.600166
-19.452275
-19.600166
-19.745645
-19.889194
-19.745645
-19.889194
-20.029980
-20.168500
-20.029980
-20.168500
-20.304264
-20.437811
-20.304264
-20.437811
-20.568473
-20.696373
-20.568473
-20.696373
-20.821809
-20.944197
-20.821809
-20.944197
-21.063656
-21.179652
-21.063656
-21.179652
-21.292778
-21.402656
-21.292778
-21.402656
-21.508966
-21.611914
-21.508966
-21.611914
-21.711229
-21.807269
-21.711229
-21.807269
-21.899103
-21.986758
-21.899103
-21.986758
-22.069880
-22.148873
-22.069880
-22.148873
-22.223676
-22.293830
-22.223676
-22.293830
-22.359425
-22.419143
-22.359425
-22.419143
-22.473901
-22.522140
-22.473901
-22.522140
-22.565257
-22.601892
-22.565257
-22.601892
-22.632712
-22.655322
-22.632712
-22.655322
-22.672188
-22.682387
-22.672188
-22.682387

