# vtk DataFile Version 2.0
MATLAB generated vtk file, WMC
ASCII
DATASET UNSTRUCTURED_GRID
POINTS 256 double
0.195312 0.145332 0.000000 
0.195312 0.435997 0.000000 
0.585938 0.145332 0.000000 
0.585938 0.435997 0.000000 
0.195312 0.727051 0.000000 
0.195312 1.018946 0.000000 
0.585938 0.727051 0.000000 
0.585938 1.018946 0.000000 
0.195312 1.311173 0.000000 
0.195312 1.604087 0.000000 
0.585938 1.311173 0.000000 
0.585938 1.604087 0.000000 
0.195312 1.897402 0.000000 
0.195312 2.191271 0.000000 
0.585938 1.897402 0.000000 
0.585938 2.191271 0.000000 
0.195312 2.485758 0.000000 
0.195312 2.780769 0.000000 
0.585938 2.485758 0.000000 
0.585938 2.780769 0.000000 
0.195312 3.076336 0.000000 
0.195312 3.372356 0.000000 
0.585938 3.076336 0.000000 
0.585938 3.372356 0.000000 
0.195312 3.668929 0.000000 
0.195312 3.966174 0.000000 
0.585938 3.668929 0.000000 
0.585938 3.966174 0.000000 
0.195312 4.263934 0.000000 
0.195312 4.562191 0.000000 
0.585938 4.263934 0.000000 
0.585938 4.562191 0.000000 
0.195312 4.861031 0.000000 
0.195312 5.160403 0.000000 
0.585938 4.861031 0.000000 
0.585938 5.160403 0.000000 
0.195312 5.460496 0.000000 
0.195312 5.761087 0.000000 
0.585938 5.460496 0.000000 
0.585938 5.761087 0.000000 
0.195312 6.062279 0.000000 
0.195312 6.363905 0.000000 
0.585938 6.062279 0.000000 
0.585938 6.363905 0.000000 
0.195312 6.666147 0.000000 
0.195312 6.968988 0.000000 
0.585938 6.666147 0.000000 
0.585938 6.968988 0.000000 
0.195312 7.272499 0.000000 
0.195312 7.576503 0.000000 
0.585938 7.272499 0.000000 
0.585938 7.576503 0.000000 
0.195312 7.881179 0.000000 
0.195312 8.186409 0.000000 
0.585938 7.881179 0.000000 
0.585938 8.186409 0.000000 
0.195312 8.492322 0.000000 
0.195312 8.798791 0.000000 
0.585938 8.492322 0.000000 
0.585938 8.798791 0.000000 
0.195312 9.105818 0.000000 
0.195312 9.413594 0.000000 
0.585938 9.105818 0.000000 
0.585938 9.413594 0.000000 
0.195312 9.721743 0.000000 
0.195312 10.030709 0.000000 
0.585938 9.721743 0.000000 
0.585938 10.030709 0.000000 
0.195312 10.340051 0.000000 
0.195312 10.650346 0.000000 
0.585938 10.340051 0.000000 
0.585938 10.650346 0.000000 
0.195312 10.961093 0.000000 
0.195312 11.272522 0.000000 
0.585938 10.961093 0.000000 
0.585938 11.272522 0.000000 
0.195312 11.584521 0.000000 
0.195312 11.897078 0.000000 
0.585938 11.584521 0.000000 
0.585938 11.897078 0.000000 
0.195312 12.210484 0.000000 
0.195312 12.524338 0.000000 
0.585938 12.210484 0.000000 
0.585938 12.524338 0.000000 
0.195312 12.839084 0.000000 
0.195312 13.154313 0.000000 
0.585938 12.839084 0.000000 
0.585938 13.154313 0.000000 
0.195312 13.470271 0.000000 
0.195312 13.786755 0.000000 
0.585938 13.470271 0.000000 
0.585938 13.786755 0.000000 
0.195312 14.103909 0.000000 
0.195312 14.421826 0.000000 
0.585938 14.103909 0.000000 
0.585938 14.421826 0.000000 
0.195312 14.740375 0.000000 
0.195312 15.059668 0.000000 
0.585938 14.740375 0.000000 
0.585938 15.059668 0.000000 
0.195312 15.379610 0.000000 
0.195312 15.700215 0.000000 
0.585938 15.379610 0.000000 
0.585938 15.700215 0.000000 
0.195312 16.021533 0.000000 
0.195312 16.343470 0.000000 
0.585938 16.021533 0.000000 
0.585938 16.343470 0.000000 
0.195312 16.666289 0.000000 
0.195312 16.989654 0.000000 
0.585938 16.666289 0.000000 
0.585938 16.989654 0.000000 
0.195312 17.313853 0.000000 
0.195312 17.638661 0.000000 
0.585938 17.313853 0.000000 
0.585938 17.638661 0.000000 
0.195312 17.964225 0.000000 
0.195312 18.290378 0.000000 
0.585938 17.964225 0.000000 
0.585938 18.290378 0.000000 
0.195312 18.617280 0.000000 
0.195312 18.944978 0.000000 
0.585938 18.617280 0.000000 
0.585938 18.944978 0.000000 
0.195312 19.273353 0.000000 
0.195312 19.602588 0.000000 
0.585938 19.273353 0.000000 
0.585938 19.602588 0.000000 
0.195312 19.932481 0.000000 
0.195312 20.263220 0.000000 
0.585938 19.932481 0.000000 
0.585938 20.263220 0.000000 
0.195312 20.594568 0.000000 
0.195312 20.926728 0.000000 
0.585938 20.594568 0.000000 
0.585938 20.926728 0.000000 
0.195312 21.259608 0.000000 
0.195312 21.593366 0.000000 
0.585938 21.259608 0.000000 
0.585938 21.593366 0.000000 
0.195312 21.927802 0.000000 
0.195312 22.263145 0.000000 
0.585938 21.927802 0.000000 
0.585938 22.263145 0.000000 
0.195312 22.599152 0.000000 
0.195312 22.936115 0.000000 
0.585938 22.599152 0.000000 
0.585938 22.936115 0.000000 
0.195312 23.273637 0.000000 
0.195312 23.612106 0.000000 
0.585938 23.273637 0.000000 
0.585938 23.612106 0.000000 
0.195312 23.951180 0.000000 
0.195312 24.291279 0.000000 
0.585938 23.951180 0.000000 
0.585938 24.291279 0.000000 
0.195312 24.632020 0.000000 
0.195312 24.973772 0.000000 
0.585938 24.632020 0.000000 
0.585938 24.973772 0.000000 
0.195312 25.316216 0.000000 
0.195312 25.659576 0.000000 
0.585938 25.316216 0.000000 
0.585938 25.659576 0.000000 
0.195312 26.003776 0.000000 
0.195312 26.348758 0.000000 
0.585938 26.003776 0.000000 
0.585938 26.348758 0.000000 
0.195312 26.694694 0.000000 
0.195312 27.041286 0.000000 
0.585938 26.694694 0.000000 
0.585938 27.041286 0.000000 
0.195312 27.388924 0.000000 
0.195312 27.737179 0.000000 
0.585938 27.388924 0.000000 
0.585938 27.737179 0.000000 
0.195312 28.086627 0.000000 
0.195312 28.436649 0.000000 
0.585938 28.086627 0.000000 
0.585938 28.436649 0.000000 
0.195312 28.787904 0.000000 
0.195312 29.139735 0.000000 
0.585938 28.787904 0.000000 
0.585938 29.139735 0.000000 
0.195312 29.492800 0.000000 
0.195312 29.846483 0.000000 
0.585938 29.492800 0.000000 
0.585938 29.846483 0.000000 
0.195312 30.201364 0.000000 
0.195312 30.556939 0.000000 
0.585938 30.201364 0.000000 
0.585938 30.556939 0.000000 
0.195312 30.913615 0.000000 
0.195312 31.271054 0.000000 
0.585938 30.913615 0.000000 
0.585938 31.271054 0.000000 
0.195312 31.629497 0.000000 
0.195312 31.988799 0.000000 
0.585938 31.629497 0.000000 
0.585938 31.988799 0.000000 
0.195312 32.349074 0.000000 
0.195312 32.710354 0.000000 
0.585938 32.349074 0.000000 
0.585938 32.710354 0.000000 
0.195312 33.072553 0.000000 
0.195312 33.435825 0.000000 
0.585938 33.072553 0.000000 
0.585938 33.435825 0.000000 
0.195312 33.799985 0.000000 
0.195312 34.165269 0.000000 
0.585938 33.799985 0.000000 
0.585938 34.165269 0.000000 
0.195312 34.531429 0.000000 
0.195312 34.898747 0.000000 
0.585938 34.531429 0.000000 
0.585938 34.898747 0.000000 
0.195312 35.266945 0.000000 
0.195312 35.636322 0.000000 
0.585938 35.266945 0.000000 
0.585938 35.636322 0.000000 
0.195312 36.006595 0.000000 
0.195312 36.378059 0.000000 
0.585938 36.006595 0.000000 
0.585938 36.378059 0.000000 
0.195312 36.750442 0.000000 
0.195312 37.124022 0.000000 
0.585938 36.750442 0.000000 
0.585938 37.124022 0.000000 
0.195312 37.498554 0.000000 
0.195312 37.874282 0.000000 
0.585938 37.498554 0.000000 
0.585938 37.874282 0.000000 
0.195312 38.250999 0.000000 
0.195312 38.628910 0.000000 
0.585938 38.250999 0.000000 
0.585938 38.628910 0.000000 
0.195312 39.007849 0.000000 
0.195312 39.387978 0.000000 
0.585938 39.007849 0.000000 
0.585938 39.387978 0.000000 
0.195312 39.769175 0.000000 
0.195312 40.151569 0.000000 
0.585938 39.769175 0.000000 
0.585938 40.151569 0.000000 
0.195312 40.535069 0.000000 
0.195312 40.919712 0.000000 
0.585938 40.535069 0.000000 
0.585938 40.919712 0.000000 
0.195312 41.305503 0.000000 
0.195312 41.692725 0.000000 
0.585938 41.305503 0.000000 
0.585938 41.692725 0.000000 
0.195312 42.080934 0.000000 
0.195312 42.469830 0.000000 
0.585938 42.080934 0.000000 
0.585938 42.469830 0.000000 

POINT_DATA 256
SCALARS sigma_xx FLOAT 1
LOOKUP_TABLE default
0.000000
0.000000
0.000000
0.000000
0.000000
0.000000
0.000000
0.000000
0.000000
0.000000
0.000000
0.000000
0.000000
0.000000
0.000000
0.000000
-0.000000
-0.000000
-0.000000
-0.000000
-0.000000
0.000000
-0.000000
0.000000
0.000000
0.000000
0.000000
0.000000
0.000000
0.000000
0.000000
0.000000
0.000000
0.000000
0.000000
0.000000
0.000000
0.000000
0.000000
0.000000
0.000000
0.000000
0.000000
0.000000
-0.000000
0.000000
-0.000000
0.000000
0.000000
0.000000
0.000000
0.000000
-0.000000
0.000000
-0.000000
0.000000
0.000000
0.000000
0.000000
0.000000
0.000000
-0.000000
-0.000000
-0.000000
-0.000000
0.000000
-0.000000
0.000000
-0.000000
-0.000000
-0.000000
-0.000000
-0.000000
0.000000
-0.000000
0.000000
-0.000000
-0.000000
-0.000000
-0.000000
0.000000
0.000000
0.000000
0.000000
-0.000000
0.000000
-0.000000
0.000000
0.000000
0.000000
0.000000
0.000000
0.000000
-0.000000
0.000000
-0.000000
-0.000000
-0.000000
-0.000000
-0.000000
-0.000000
-0.000000
-0.000000
-0.000000
0.000000
-0.000000
0.000000
-0.000000
-0.000000
-0.000000
-0.000000
-0.000000
-0.000000
0.000000
-0.000000
0.000000
0.000000
0.000000
0.000000
0.000000
0.000000
-0.000000
0.000000
-0.000000
-0.000000
-0.000000
-0.000000
0.000000
0.000000
0.000000
0.000000
0.000000
-0.000000
0.000000
-0.000000
0.000000
0.000000
0.000000
0.000000
0.000000
-0.000000
-0.000000
-0.000000
-0.000000
-0.000000
0.000000
-0.000000
0.000000
-0.000000
-0.000000
0.000000
-0.000000
0.000000
-0.000000
0.000000
-0.000000
-0.000000
-0.000000
-0.000000
-0.000000
-0.000000
-0.000000
0.000000
-0.000000
0.000000
0.000000
0.000000
0.000000
0.000000
0.000000
0.000000
-0.000000
-0.000000
0.000000
-0.000000
0.000000
0.000000
0.000000
0.000000
0.000000
0.000000
-0.000000
0.000000
-0.000000
-0.000000
-0.000000
-0.000000
-0.000000
0.000000
-0.000000
0.000000
-0.000000
-0.000000
0.000000
-0.000000
-0.000000
-0.000000
0.000000
-0.000000
0.000000
0.000000
-0.000000
-0.000000
-0.000000
-0.000000
0.000000
0.000000
0.000000
0.000000
-0.000000
0.000000
-0.000000
0.000000
0.000000
0.000000
-0.000000
0.000000
-0.000000
0.000000
-0.000000
-0.000000
0.000000
-0.000000
0.000000
-0.000000
-0.000000
-0.000000
-0.000000
0.000000
0.000000
0.000000
0.000000
0.000000
0.000000
0.000000
-0.000000
-0.000000
-0.000000
-0.000000
-0.000000
0.000000
-0.000000
0.000000
-0.000000
0.000000
-0.000000
-0.000000
-0.000000
-0.000000
-0.000000
-0.000000
-0.000000
-0.000000
-0.000000
-0.000000
-0.000000

SCALARS sigma_yy FLOAT 1
LOOKUP_TABLE default
-3972.285677
-3972.285677
-3972.285677
-3972.285677
-3914.376527
-3895.040643
-3914.376527
-3895.040643
-3856.089637
-3829.075331
-3856.089637
-3829.075331
-3797.758312
-3767.842628
-3797.758312
-3767.842628
-3728.947935
-3704.748897
-3728.947935
-3704.748897
-3668.774583
-3648.913352
-3668.774583
-3648.913352
-3605.296028
-3578.553128
-3605.296028
-3578.553128
-3544.401780
-3519.524040
-3544.401780
-3519.524040
-3482.382662
-3456.171597
-3482.382662
-3456.171597
-3413.576252
-3394.124223
-3413.576252
-3394.124223
-3354.618627
-3338.419877
-3354.618627
-3338.419877
-3292.430578
-3272.295825
-3292.430578
-3272.295825
-3227.379182
-3212.318060
-3227.379182
-3212.318060
-3163.023324
-3147.446484
-3163.023324
-3147.446484
-3096.735009
-3088.902224
-3096.735009
-3088.902224
-3034.334935
-3023.681521
-3034.334935
-3023.681521
-2979.566202
-2960.041397
-2979.566202
-2960.041397
-2920.971177
-2886.704901
-2920.971177
-2886.704901
-2861.191473
-2825.404611
-2861.191473
-2825.404611
-2802.198750
-2764.684020
-2802.198750
-2764.684020
-2732.884614
-2705.810259
-2732.884614
-2705.810259
-2663.434559
-2646.884478
-2663.434559
-2646.884478
-2602.545304
-2589.753536
-2602.545304
-2589.753536
-2540.971945
-2521.655425
-2540.971945
-2521.655425
-2479.313627
-2456.030106
-2479.313627
-2456.030106
-2418.527573
-2394.138657
-2418.527573
-2394.138657
-2357.173446
-2331.465634
-2357.173446
-2331.465634
-2289.615722
-2271.534669
-2289.615722
-2271.534669
-2224.444690
-2210.513233
-2224.444690
-2210.513233
-2163.886129
-2153.498718
-2163.886129
-2153.498718
-2101.435590
-2087.979243
-2101.435590
-2087.979243
-2039.198066
-2022.306761
-2039.198066
-2022.306761
-1977.175615
-1958.399739
-1977.175615
-1958.399739
-1917.662015
-1897.348961
-1917.662015
-1897.348961
-1852.870999
-1833.333554
-1852.870999
-1833.333554
-1790.219016
-1769.857381
-1790.219016
-1769.857381
-1727.292234
-1706.429973
-1727.292234
-1706.429973
-1669.542799
-1644.856528
-1669.542799
-1644.856528
-1609.699532
-1578.542804
-1609.699532
-1578.542804
-1548.553096
-1512.206459
-1548.553096
-1512.206459
-1487.808090
-1447.885469
-1487.808090
-1447.885469
-1424.659904
-1386.418251
-1424.659904
-1386.418251
-1361.892159
-1327.463808
-1361.892159
-1327.463808
-1299.150089
-1267.090253
-1299.150089
-1267.090253
-1232.766030
-1206.518713
-1232.766030
-1206.518713
-1166.778597
-1145.927106
-1166.778597
-1145.927106
-1101.048711
-1085.267827
-1101.048711
-1085.267827
-1035.595718
-1024.543347
-1035.595718
-1024.543347
-972.544772
-963.839239
-972.544772
-963.839239
-912.521377
-902.610874
-912.521377
-902.610874
-850.975729
-838.293389
-850.975729
-838.293389
-789.322664
-774.211001
-789.322664
-774.211001
-727.651760
-710.276707
-727.651760
-710.276707
-665.949128
-646.493766
-665.949128
-646.493766
-604.213117
-582.856833
-604.213117
-582.856833
-542.439621
-519.361796
-542.439621
-519.361796
-480.624621
-456.004082
-480.624621
-456.004082
-418.764089
-392.780632
-418.764089
-392.780632
-356.851772
-329.679202
-356.851772
-329.679202
-294.891732
-266.745206
-294.891732
-266.745206
-232.824540
-203.648028
-232.824540
-203.648028
-170.982030
-142.878656
-170.982030
-142.878656
-107.438528
-72.639210
-107.438528
-72.639210
-52.398343
-15.209340
-52.398343
-15.209340

SCALARS sigma_zz FLOAT 1
LOOKUP_TABLE default
0.000000
0.000000
0.000000
0.000000
0.000000
0.000000
0.000000
0.000000
0.000000
0.000000
0.000000
0.000000
0.000000
0.000000
0.000000
0.000000
0.000000
0.000000
0.000000
0.000000
0.000000
0.000000
0.000000
0.000000
0.000000
0.000000
0.000000
0.000000
0.000000
0.000000
0.000000
0.000000
0.000000
0.000000
0.000000
0.000000
0.000000
0.000000
0.000000
0.000000
0.000000
0.000000
0.000000
0.000000
0.000000
0.000000
0.000000
0.000000
0.000000
0.000000
0.000000
0.000000
0.000000
0.000000
0.000000
0.000000
0.000000
0.000000
0.000000
0.000000
0.000000
0.000000
0.000000
0.000000
0.000000
0.000000
0.000000
0.000000
0.000000
0.000000
0.000000
0.000000
0.000000
0.000000
0.000000
0.000000
0.000000
0.000000
0.000000
0.000000
0.000000
0.000000
0.000000
0.000000
0.000000
0.000000
0.000000
0.000000
0.000000
0.000000
0.000000
0.000000
0.000000
0.000000
0.000000
0.000000
0.000000
0.000000
0.000000
0.000000
0.000000
0.000000
0.000000
0.000000
0.000000
0.000000
0.000000
0.000000
0.000000
0.000000
0.000000
0.000000
0.000000
0.000000
0.000000
0.000000
0.000000
0.000000
0.000000
0.000000
0.000000
0.000000
0.000000
0.000000
0.000000
0.000000
0.000000
0.000000
0.000000
0.000000
0.000000
0.000000
0.000000
0.000000
0.000000
0.000000
0.000000
0.000000
0.000000
0.000000
0.000000
0.000000
0.000000
0.000000
0.000000
0.000000
0.000000
0.000000
0.000000
0.000000
0.000000
0.000000
0.000000
0.000000
0.000000
0.000000
0.000000
0.000000
0.000000
0.000000
0.000000
0.000000
0.000000
0.000000
0.000000
0.000000
0.000000
0.000000
0.000000
0.000000
0.000000
0.000000
0.000000
0.000000
0.000000
0.000000
0.000000
0.000000
0.000000
0.000000
0.000000
0.000000
0.000000
0.000000
0.000000
0.000000
0.000000
0.000000
0.000000
0.000000
0.000000
0.000000
0.000000
0.000000
0.000000
0.000000
0.000000
0.000000
0.000000
0.000000
0.000000
0.000000
0.000000
0.000000
0.000000
0.000000
0.000000
0.000000
0.000000
0.000000
0.000000
0.000000
0.000000
0.000000
0.000000
0.000000
0.000000
0.000000
0.000000
0.000000
0.000000
0.000000
0.000000
0.000000
0.000000
0.000000
0.000000
0.000000
0.000000
0.000000
0.000000
0.000000
0.000000
0.000000
0.000000
0.000000
0.000000
0.000000
0.000000
0.000000
0.000000
0.000000
0.000000
0.000000
0.000000
0.000000
0.000000
0.000000
0.000000
0.000000
0.000000
0.000000
0.000000
0.000000
0.000000
0.000000

SCALARS sigma_xy FLOAT 1
LOOKUP_TABLE default
0.000000
0.000000
0.000000
0.000000
0.000000
0.000000
0.000000
0.000000
0.000000
0.000000
0.000000
0.000000
0.000000
0.000000
0.000000
0.000000
-0.000000
-0.000000
-0.000000
-0.000000
-0.000000
0.000000
-0.000000
0.000000
0.000000
0.000000
0.000000
0.000000
0.000000
0.000000
0.000000
0.000000
0.000000
0.000000
0.000000
0.000000
0.000000
0.000000
0.000000
0.000000
0.000000
0.000000
0.000000
0.000000
-0.000000
0.000000
-0.000000
0.000000
0.000000
0.000000
0.000000
0.000000
-0.000000
0.000000
-0.000000
0.000000
0.000000
0.000000
0.000000
0.000000
0.000000
-0.000000
-0.000000
-0.000000
-0.000000
0.000000
-0.000000
0.000000
0.000000
0.000000
0.000000
0.000000
0.000000
0.000000
0.000000
0.000000
-0.000000
-0.000000
-0.000000
-0.000000
0.000000
0.000000
0.000000
0.000000
0.000000
0.000000
0.000000
0.000000
0.000000
0.000000
0.000000
0.000000
0.000000
-0.000000
0.000000
-0.000000
-0.000000
0.000000
-0.000000
0.000000
0.000000
0.000000
0.000000
0.000000
0.000000
-0.000000
0.000000
-0.000000
-0.000000
-0.000000
-0.000000
-0.000000
0.000000
0.000000
0.000000
0.000000
0.000000
0.000000
0.000000
0.000000
0.000000
0.000000
0.000000
0.000000
-0.000000
-0.000000
-0.000000
0.000000
0.000000
0.000000
0.000000
0.000000
0.000000
0.000000
0.000000
0.000000
0.000000
0.000000
0.000000
0.000000
0.000000
0.000000
0.000000
0.000000
-0.000000
0.000000
-0.000000
0.000000
-0.000000
-0.000000
0.000000
-0.000000
0.000000
0.000000
0.000000
0.000000
0.000000
0.000000
0.000000
0.000000
0.000000
0.000000
0.000000
0.000000
0.000000
0.000000
0.000000
0.000000
0.000000
0.000000
0.000000
-0.000000
-0.000000
0.000000
-0.000000
0.000000
0.000000
0.000000
0.000000
0.000000
0.000000
0.000000
0.000000
0.000000
0.000000
-0.000000
0.000000
-0.000000
0.000000
0.000000
0.000000
0.000000
0.000000
0.000000
0.000000
-0.000000
-0.000000
0.000000
-0.000000
0.000000
0.000000
0.000000
0.000000
0.000000
0.000000
0.000000
0.000000
0.000000
0.000000
0.000000
0.000000
0.000000
0.000000
0.000000
0.000000
0.000000
0.000000
-0.000000
0.000000
-0.000000
-0.000000
0.000000
-0.000000
0.000000
0.000000
-0.000000
0.000000
-0.000000
0.000000
0.000000
0.000000
0.000000
0.000000
0.000000
0.000000
0.000000
0.000000
-0.000000
0.000000
-0.000000
0.000000
0.000000
0.000000
0.000000
0.000000
-0.000000
-0.000000
-0.000000
-0.000000
-0.000000
-0.000000
-0.000000
-0.000000
-0.000000
-0.000000
-0.000000

SCALARS sigma_yz FLOAT 1
LOOKUP_TABLE default
0.000000
0.000000
0.000000
0.000000
0.000000
0.000000
0.000000
0.000000
0.000000
0.000000
0.000000
0.000000
0.000000
0.000000
0.000000
0.000000
0.000000
0.000000
0.000000
0.000000
0.000000
0.000000
0.000000
0.000000
0.000000
0.000000
0.000000
0.000000
0.000000
0.000000
0.000000
0.000000
0.000000
0.000000
0.000000
0.000000
0.000000
0.000000
0.000000
0.000000
0.000000
0.000000
0.000000
0.000000
0.000000
0.000000
0.000000
0.000000
0.000000
0.000000
0.000000
0.000000
0.000000
0.000000
0.000000
0.000000
0.000000
0.000000
0.000000
0.000000
0.000000
0.000000
0.000000
0.000000
0.000000
0.000000
0.000000
0.000000
0.000000
0.000000
0.000000
0.000000
0.000000
0.000000
0.000000
0.000000
0.000000
0.000000
0.000000
0.000000
0.000000
0.000000
0.000000
0.000000
0.000000
0.000000
0.000000
0.000000
0.000000
0.000000
0.000000
0.000000
0.000000
0.000000
0.000000
0.000000
0.000000
0.000000
0.000000
0.000000
0.000000
0.000000
0.000000
0.000000
0.000000
0.000000
0.000000
0.000000
0.000000
0.000000
0.000000
0.000000
0.000000
0.000000
0.000000
0.000000
0.000000
0.000000
0.000000
0.000000
0.000000
0.000000
0.000000
0.000000
0.000000
0.000000
0.000000
0.000000
0.000000
0.000000
0.000000
0.000000
0.000000
0.000000
0.000000
0.000000
0.000000
0.000000
0.000000
0.000000
0.000000
0.000000
0.000000
0.000000
0.000000
0.000000
0.000000
0.000000
0.000000
0.000000
0.000000
0.000000
0.000000
0.000000
0.000000
0.000000
0.000000
0.000000
0.000000
0.000000
0.000000
0.000000
0.000000
0.000000
0.000000
0.000000
0.000000
0.000000
0.000000
0.000000
0.000000
0.000000
0.000000
0.000000
0.000000
0.000000
0.000000
0.000000
0.000000
0.000000
0.000000
0.000000
0.000000
0.000000
0.000000
0.000000
0.000000
0.000000
0.000000
0.000000
0.000000
0.000000
0.000000
0.000000
0.000000
0.000000
0.000000
0.000000
0.000000
0.000000
0.000000
0.000000
0.000000
0.000000
0.000000
0.000000
0.000000
0.000000
0.000000
0.000000
0.000000
0.000000
0.000000
0.000000
0.000000
0.000000
0.000000
0.000000
0.000000
0.000000
0.000000
0.000000
0.000000
0.000000
0.000000
0.000000
0.000000
0.000000
0.000000
0.000000
0.000000
0.000000
0.000000
0.000000
0.000000
0.000000
0.000000
0.000000
0.000000
0.000000
0.000000
0.000000
0.000000
0.000000
0.000000
0.000000
0.000000
0.000000
0.000000
0.000000
0.000000
0.000000
0.000000
0.000000
0.000000
0.000000

SCALARS sigma_zx FLOAT 1
LOOKUP_TABLE default
0.000000
0.000000
0.000000
0.000000
0.000000
0.000000
0.000000
0.000000
0.000000
0.000000
0.000000
0.000000
0.000000
0.000000
0.000000
0.000000
0.000000
0.000000
0.000000
0.000000
0.000000
0.000000
0.000000
0.000000
0.000000
0.000000
0.000000
0.000000
0.000000
0.000000
0.000000
0.000000
0.000000
0.000000
0.000000
0.000000
0.000000
0.000000
0.000000
0.000000
0.000000
0.000000
0.000000
0.000000
0.000000
0.000000
0.000000
0.000000
0.000000
0.000000
0.000000
0.000000
0.000000
0.000000
0.000000
0.000000
0.000000
0.000000
0.000000
0.000000
0.000000
0.000000
0.000000
0.000000
0.000000
0.000000
0.000000
0.000000
0.000000
0.000000
0.000000
0.000000
0.000000
0.000000
0.000000
0.000000
0.000000
0.000000
0.000000
0.000000
0.000000
0.000000
0.000000
0.000000
0.000000
0.000000
0.000000
0.000000
0.000000
0.000000
0.000000
0.000000
0.000000
0.000000
0.000000
0.000000
0.000000
0.000000
0.000000
0.000000
0.000000
0.000000
0.000000
0.000000
0.000000
0.000000
0.000000
0.000000
0.000000
0.000000
0.000000
0.000000
0.000000
0.000000
0.000000
0.000000
0.000000
0.000000
0.000000
0.000000
0.000000
0.000000
0.000000
0.000000
0.000000
0.000000
0.000000
0.000000
0.000000
0.000000
0.000000
0.000000
0.000000
0.000000
0.000000
0.000000
0.000000
0.000000
0.000000
0.000000
0.000000
0.000000
0.000000
0.000000
0.000000
0.000000
0.000000
0.000000
0.000000
0.000000
0.000000
0.000000
0.000000
0.000000
0.000000
0.000000
0.000000
0.000000
0.000000
0.000000
0.000000
0.000000
0.000000
0.000000
0.000000
0.000000
0.000000
0.000000
0.000000
0.000000
0.000000
0.000000
0.000000
0.000000
0.000000
0.000000
0.000000
0.000000
0.000000
0.000000
0.000000
0.000000
0.000000
0.000000
0.000000
0.000000
0.000000
0.000000
0.000000
0.000000
0.000000
0.000000
0.000000
0.000000
0.000000
0.000000
0.000000
0.000000
0.000000
0.000000
0.000000
0.000000
0.000000
0.000000
0.000000
0.000000
0.000000
0.000000
0.000000
0.000000
0.000000
0.000000
0.000000
0.000000
0.000000
0.000000
0.000000
0.000000
0.000000
0.000000
0.000000
0.000000
0.000000
0.000000
0.000000
0.000000
0.000000
0.000000
0.000000
0.000000
0.000000
0.000000
0.000000
0.000000
0.000000
0.000000
0.000000
0.000000
0.000000
0.000000
0.000000
0.000000
0.000000
0.000000
0.000000
0.000000
0.000000
0.000000
0.000000
0.000000
0.000000
0.000000
0.000000
0.000000
0.000000
0.000000

SCALARS u_x FLOAT 1
LOOKUP_TABLE default
0.000000
0.000000
0.000000
0.000000
0.000000
0.000000
0.000000
0.000000
0.000000
0.000000
0.000000
0.000000
0.000000
0.000000
0.000000
0.000000
0.000000
0.000000
0.000000
0.000000
0.000000
0.000000
0.000000
0.000000
0.000000
0.000000
0.000000
0.000000
0.000000
0.000000
0.000000
0.000000
0.000000
0.000000
0.000000
0.000000
0.000000
0.000000
0.000000
0.000000
0.000000
0.000000
0.000000
0.000000
0.000000
0.000000
0.000000
0.000000
0.000000
0.000000
0.000000
0.000000
0.000000
0.000000
0.000000
0.000000
0.000000
0.000000
0.000000
0.000000
0.000000
0.000000
0.000000
0.000000
0.000000
0.000000
0.000000
0.000000
0.000000
0.000000
0.000000
0.000000
0.000000
0.000000
0.000000
0.000000
0.000000
0.000000
0.000000
0.000000
0.000000
0.000000
0.000000
0.000000
0.000000
0.000000
0.000000
0.000000
0.000000
0.000000
0.000000
0.000000
0.000000
0.000000
0.000000
0.000000
0.000000
0.000000
0.000000
0.000000
0.000000
0.000000
0.000000
0.000000
0.000000
0.000000
0.000000
0.000000
0.000000
0.000000
0.000000
0.000000
0.000000
0.000000
0.000000
0.000000
0.000000
0.000000
0.000000
0.000000
0.000000
0.000000
0.000000
0.000000
0.000000
0.000000
0.000000
0.000000
0.000000
0.000000
0.000000
0.000000
0.000000
0.000000
0.000000
0.000000
0.000000
0.000000
0.000000
0.000000
0.000000
0.000000
0.000000
0.000000
0.000000
0.000000
0.000000
0.000000
0.000000
0.000000
0.000000
0.000000
0.000000
0.000000
0.000000
0.000000
0.000000
0.000000
0.000000
0.000000
0.000000
0.000000
0.000000
0.000000
0.000000
0.000000
0.000000
0.000000
0.000000
0.000000
0.000000
0.000000
0.000000
0.000000
0.000000
0.000000
0.000000
0.000000
0.000000
0.000000
0.000000
0.000000
0.000000
0.000000
0.000000
0.000000
0.000000
0.000000
0.000000
0.000000
0.000000
0.000000
0.000000
0.000000
0.000000
0.000000
0.000000
0.000000
0.000000
0.000000
0.000000
0.000000
0.000000
0.000000
0.000000
0.000000
0.000000
0.000000
0.000000
0.000000
0.000000
0.000000
0.000000
0.000000
0.000000
0.000000
0.000000
0.000000
0.000000
0.000000
0.000000
0.000000
0.000000
0.000000
0.000000
0.000000
0.000000
0.000000
0.000000
0.000000
0.000000
0.000000
0.000000
0.000000
0.000000
0.000000
0.000000
0.000000
0.000000
0.000000
0.000000
0.000000
0.000000
0.000000
0.000000
0.000000
0.000000
0.000000
0.000000
0.000000
0.000000
0.000000
0.000000
0.000000
0.000000
0.000000

SCALARS u_y FLOAT 1
LOOKUP_TABLE default
-0.049980
-0.149941
-0.049980
-0.149941
-0.249512
-0.348242
-0.249512
-0.348242
-0.446640
-0.544350
-0.446640
-0.544350
-0.641661
-0.738416
-0.641661
-0.738416
-0.834555
-0.930168
-0.834555
-0.930168
-1.025227
-1.119832
-1.025227
-1.119832
-1.213884
-1.307264
-1.213884
-1.307264
-1.400129
-1.492497
-1.400129
-1.492497
-1.584282
-1.675535
-1.584282
-1.675535
-1.766067
-1.856100
-1.766067
-1.856100
-1.945533
-2.034533
-1.945533
-2.034533
-2.122916
-2.210699
-2.122916
-2.210699
-2.297814
-2.384434
-2.297814
-2.384434
-2.470383
-2.555779
-2.470383
-2.555779
-2.640490
-2.724647
-2.640490
-2.724647
-2.808245
-2.891093
-2.808245
-2.891093
-2.973570
-3.055228
-2.973570
-3.055228
-3.136512
-3.216842
-3.136512
-3.216842
-3.296719
-3.375916
-3.296719
-3.375916
-3.454542
-3.532610
-3.454542
-3.532610
-3.609829
-3.686600
-3.609829
-3.686600
-3.762478
-3.837875
-3.762478
-3.837875
-3.912541
-3.986682
-3.912541
-3.986682
-4.060153
-4.132862
-4.060153
-4.132862
-4.204937
-4.276270
-4.204937
-4.276270
-4.346952
-4.416973
-4.346952
-4.416973
-4.486280
-4.554968
-4.486280
-4.554968
-4.622773
-4.690033
-4.622773
-4.690033
-4.756459
-4.822277
-4.756459
-4.822277
-4.887338
-4.951809
-4.887338
-4.951809
-5.015533
-5.078460
-5.015533
-5.078460
-5.140710
-5.202099
-5.140710
-5.202099
-5.262832
-5.322717
-5.262832
-5.322717
-5.381995
-5.440459
-5.381995
-5.440459
-5.498205
-5.555072
-5.498205
-5.555072
-5.611261
-5.666542
-5.611261
-5.666542
-5.721160
-5.774823
-5.721160
-5.774823
-5.827925
-5.880082
-5.827925
-5.880082
-5.931633
-5.982159
-5.931633
-5.982159
-6.032043
-6.080915
-6.032043
-6.080915
-6.129096
-6.176361
-6.129096
-6.176361
-6.222786
-6.268429
-6.222786
-6.268429
-6.313119
-6.357151
-6.313119
-6.357151
-6.400138
-6.442509
-6.400138
-6.442509
-6.483685
-6.524289
-6.483685
-6.524289
-6.563659
-6.602453
-6.563659
-6.602453
-6.640012
-6.676955
-6.640012
-6.676955
-6.712698
-6.747748
-6.712698
-6.747748
-6.781698
-6.814884
-6.781698
-6.814884
-6.847065
-6.878388
-6.847065
-6.878388
-6.908738
-6.938084
-6.908738
-6.938084
-6.966510
-6.993863
-6.966510
-6.993863
-7.020327
-7.045669
-7.020327
-7.045669
-7.070133
-7.093440
-7.070133
-7.093440
-7.115867
-7.137115
-7.115867
-7.137115
-7.157468
-7.176629
-7.157468
-7.176629
-7.194870
-7.211915
-7.194870
-7.211915
-7.228008
-7.242905
-7.228008
-7.242905
-7.256813
-7.269528
-7.256813
-7.269528
-7.281213
-7.291710
-7.281213
-7.291710
-7.301137
-7.309369
-7.301137
-7.309369
-7.316494
-7.322476
-7.316494
-7.322476
-7.327310
-7.330713
-7.327310
-7.330713
-7.333128
-7.334857
-7.333128
-7.334857

