# vtk DataFile Version 2.0
MATLAB generated vtk file, WMC
ASCII
DATASET UNSTRUCTURED_GRID
POINTS 256 double
0.195312 0.165130 0.000000 
0.195312 0.495390 0.000000 
0.585938 0.165130 0.000000 
0.585938 0.495390 0.000000 
0.195312 0.825985 0.000000 
0.195312 1.157033 0.000000 
0.585938 0.825985 0.000000 
0.585938 1.157033 0.000000 
0.195312 1.488377 0.000000 
0.195312 1.820206 0.000000 
0.585938 1.488377 0.000000 
0.585938 1.820206 0.000000 
0.195312 2.152315 0.000000 
0.195312 2.484916 0.000000 
0.585938 2.152315 0.000000 
0.585938 2.484916 0.000000 
0.195312 2.817807 0.000000 
0.195312 3.151174 0.000000 
0.585938 2.817807 0.000000 
0.585938 3.151174 0.000000 
0.195312 3.484865 0.000000 
0.195312 3.818973 0.000000 
0.585938 3.484865 0.000000 
0.585938 3.818973 0.000000 
0.195312 4.153444 0.000000 
0.195312 4.488281 0.000000 
0.585938 4.153444 0.000000 
0.585938 4.488281 0.000000 
0.195312 4.823541 0.000000 
0.195312 5.159128 0.000000 
0.585938 4.823541 0.000000 
0.585938 5.159128 0.000000 
0.195312 5.495203 0.000000 
0.195312 5.831576 0.000000 
0.585938 5.495203 0.000000 
0.585938 5.831576 0.000000 
0.195312 6.168457 0.000000 
0.195312 6.505630 0.000000 
0.585938 6.168457 0.000000 
0.585938 6.505630 0.000000 
0.195312 6.843312 0.000000 
0.195312 7.181300 0.000000 
0.585938 6.843312 0.000000 
0.585938 7.181300 0.000000 
0.195312 7.519780 0.000000 
0.195312 7.858600 0.000000 
0.585938 7.519780 0.000000 
0.585938 7.858600 0.000000 
0.195312 8.197849 0.000000 
0.195312 8.537471 0.000000 
0.585938 8.197849 0.000000 
0.585938 8.537471 0.000000 
0.195312 8.877471 0.000000 
0.195312 9.217891 0.000000 
0.585938 8.877471 0.000000 
0.585938 9.217891 0.000000 
0.195312 9.558664 0.000000 
0.195312 9.899934 0.000000 
0.585938 9.558664 0.000000 
0.585938 9.899934 0.000000 
0.195312 10.241525 0.000000 
0.195312 10.583638 0.000000 
0.585938 10.241525 0.000000 
0.585938 10.583638 0.000000 
0.195312 10.926059 0.000000 
0.195312 11.269013 0.000000 
0.585938 10.926059 0.000000 
0.585938 11.269013 0.000000 
0.195312 11.612278 0.000000 
0.195312 11.956070 0.000000 
0.585938 11.612278 0.000000 
0.585938 11.956070 0.000000 
0.195312 12.300193 0.000000 
0.195312 12.644821 0.000000 
0.585938 12.300193 0.000000 
0.585938 12.644821 0.000000 
0.195312 12.989815 0.000000 
0.195312 13.335262 0.000000 
0.585938 12.989815 0.000000 
0.585938 13.335262 0.000000 
0.195312 13.681114 0.000000 
0.195312 14.027372 0.000000 
0.585938 13.681114 0.000000 
0.585938 14.027372 0.000000 
0.195312 14.374086 0.000000 
0.195312 14.721174 0.000000 
0.585938 14.374086 0.000000 
0.585938 14.721174 0.000000 
0.195312 15.068778 0.000000 
0.195312 15.416725 0.000000 
0.585938 15.068778 0.000000 
0.585938 15.416725 0.000000 
0.195312 15.765216 0.000000 
0.195312 16.114035 0.000000 
0.585938 15.765216 0.000000 
0.585938 16.114035 0.000000 
0.195312 16.463413 0.000000 
0.195312 16.813115 0.000000 
0.585938 16.463413 0.000000 
0.585938 16.813115 0.000000 
0.195312 17.163380 0.000000 
0.195312 17.513978 0.000000 
0.585938 17.163380 0.000000 
0.585938 17.513978 0.000000 
0.195312 17.865129 0.000000 
0.195312 18.216635 0.000000 
0.585938 17.865129 0.000000 
0.585938 18.216635 0.000000 
0.195312 18.568674 0.000000 
0.195312 18.921100 0.000000 
0.585938 18.568674 0.000000 
0.585938 18.921100 0.000000 
0.195312 19.274020 0.000000 
0.195312 19.627363 0.000000 
0.585938 19.274020 0.000000 
0.585938 19.627363 0.000000 
0.195312 19.981141 0.000000 
0.195312 20.335365 0.000000 
0.585938 19.981141 0.000000 
0.585938 20.335365 0.000000 
0.195312 20.690012 0.000000 
0.195312 21.045179 0.000000 
0.585938 20.690012 0.000000 
0.585938 21.045179 0.000000 
0.195312 21.400737 0.000000 
0.195312 21.756849 0.000000 
0.585938 21.400737 0.000000 
0.585938 21.756849 0.000000 
0.195312 22.113330 0.000000 
0.195312 22.470388 0.000000 
0.585938 22.113330 0.000000 
0.585938 22.470388 0.000000 
0.195312 22.827802 0.000000 
0.195312 23.185810 0.000000 
0.585938 22.827802 0.000000 
0.585938 23.185810 0.000000 
0.195312 23.544169 0.000000 
0.195312 23.903129 0.000000 
0.585938 23.544169 0.000000 
0.585938 23.903129 0.000000 
0.195312 24.262443 0.000000 
0.195312 24.622358 0.000000 
0.585938 24.262443 0.000000 
0.585938 24.622358 0.000000 
0.195312 24.982638 0.000000 
0.195312 25.343512 0.000000 
0.585938 24.982638 0.000000 
0.585938 25.343512 0.000000 
0.195312 25.704769 0.000000 
0.195312 26.066606 0.000000 
0.585938 25.704769 0.000000 
0.585938 26.066606 0.000000 
0.195312 26.428850 0.000000 
0.195312 26.791655 0.000000 
0.585938 26.428850 0.000000 
0.585938 26.791655 0.000000 
0.195312 27.154896 0.000000 
0.195312 27.518672 0.000000 
0.585938 27.154896 0.000000 
0.585938 27.518672 0.000000 
0.195312 27.882919 0.000000 
0.195312 28.247657 0.000000 
0.585938 27.882919 0.000000 
0.585938 28.247657 0.000000 
0.195312 28.612887 0.000000 
0.195312 28.978594 0.000000 
0.585938 28.612887 0.000000 
0.585938 28.978594 0.000000 
0.195312 29.344847 0.000000 
0.195312 29.711551 0.000000 
0.585938 29.344847 0.000000 
0.585938 29.711551 0.000000 
0.195312 30.078831 0.000000 
0.195312 30.446543 0.000000 
0.585938 30.078831 0.000000 
0.585938 30.446543 0.000000 
0.195312 30.814857 0.000000 
0.195312 31.183587 0.000000 
0.585938 30.814857 0.000000 
0.585938 31.183587 0.000000 
0.195312 31.552940 0.000000 
0.195312 31.922698 0.000000 
0.585938 31.552940 0.000000 
0.585938 31.922698 0.000000 
0.195312 32.293096 0.000000 
0.195312 32.663894 0.000000 
0.585938 32.293096 0.000000 
0.585938 32.663894 0.000000 
0.195312 33.035343 0.000000 
0.195312 33.407189 0.000000 
0.585938 33.035343 0.000000 
0.585938 33.407189 0.000000 
0.195312 33.779698 0.000000 
0.195312 34.152603 0.000000 
0.585938 33.779698 0.000000 
0.585938 34.152603 0.000000 
0.195312 34.526178 0.000000 
0.195312 34.900152 0.000000 
0.585938 34.526178 0.000000 
0.585938 34.900152 0.000000 
0.195312 35.274801 0.000000 
0.195312 35.649853 0.000000 
0.585938 35.274801 0.000000 
0.585938 35.649853 0.000000 
0.195312 36.025584 0.000000 
0.195312 36.401724 0.000000 
0.585938 36.025584 0.000000 
0.585938 36.401724 0.000000 
0.195312 36.778545 0.000000 
0.195312 37.155784 0.000000 
0.585938 36.778545 0.000000 
0.585938 37.155784 0.000000 
0.195312 37.533704 0.000000 
0.195312 37.912051 0.000000 
0.585938 37.533704 0.000000 
0.585938 37.912051 0.000000 
0.195312 38.291079 0.000000 
0.195312 38.670544 0.000000 
0.585938 38.291079 0.000000 
0.585938 38.670544 0.000000 
0.195312 39.050689 0.000000 
0.195312 39.431282 0.000000 
0.585938 39.050689 0.000000 
0.585938 39.431282 0.000000 
0.195312 39.812554 0.000000 
0.195312 40.194284 0.000000 
0.585938 39.812554 0.000000 
0.585938 40.194284 0.000000 
0.195312 40.576693 0.000000 
0.195312 40.959570 0.000000 
0.585938 40.576693 0.000000 
0.585938 40.959570 0.000000 
0.195312 41.343126 0.000000 
0.195312 41.727161 0.000000 
0.585938 41.343126 0.000000 
0.585938 41.727161 0.000000 
0.195312 42.111875 0.000000 
0.195312 42.497077 0.000000 
0.585938 42.111875 0.000000 
0.585938 42.497077 0.000000 
0.195312 42.882959 0.000000 
0.195312 43.269339 0.000000 
0.585938 42.882959 0.000000 
0.585938 43.269339 0.000000 
0.195312 43.656398 0.000000 
0.195312 44.043963 0.000000 
0.585938 43.656398 0.000000 
0.585938 44.043963 0.000000 
0.195312 44.432236 0.000000 
0.195312 44.821029 0.000000 
0.585938 44.432236 0.000000 
0.585938 44.821029 0.000000 
0.195312 45.210224 0.000000 
0.195312 45.599861 0.000000 
0.585938 45.210224 0.000000 
0.585938 45.599861 0.000000 

POINT_DATA 256
SCALARS sigma_xx FLOAT 1
LOOKUP_TABLE default
0.000000
0.000000
0.000000
0.000000
0.000000
0.000000
0.000000
0.000000
0.000000
0.000000
0.000000
0.000000
0.000000
0.000000
0.000000
0.000000
0.000000
0.000000
0.000000
0.000000
0.000000
0.000000
0.000000
0.000000
0.000000
0.000000
0.000000
0.000000
0.000000
0.000000
0.000000
0.000000
0.000000
0.000000
0.000000
0.000000
0.000000
0.000000
0.000000
0.000000
0.000000
-0.000000
0.000000
-0.000000
0.000000
0.000000
0.000000
0.000000
0.000000
0.000000
0.000000
0.000000
-0.000000
0.000000
-0.000000
0.000000
0.000000
0.000000
0.000000
0.000000
0.000000
0.000000
0.000000
0.000000
0.000000
0.000000
0.000000
0.000000
-0.000000
-0.000000
-0.000000
-0.000000
-0.000000
0.000000
0.000000
0.000000
-0.000000
-0.000000
0.000000
-0.000000
-0.000000
0.000000
-0.000000
0.000000
-0.000000
0.000000
-0.000000
0.000000
0.000000
0.000000
0.000000
0.000000
0.000000
0.000000
0.000000
0.000000
-0.000000
0.000000
-0.000000
0.000000
-0.000000
-0.000000
-0.000000
-0.000000
-0.000000
0.000000
-0.000000
0.000000
-0.000000
-0.000000
-0.000000
-0.000000
-0.000000
0.000000
-0.000000
0.000000
0.000000
-0.000000
0.000000
-0.000000
0.000000
0.000000
-0.000000
0.000000
-0.000000
0.000000
-0.000000
0.000000
0.000000
0.000000
0.000000
0.000000
-0.000000
-0.000000
-0.000000
-0.000000
-0.000000
0.000000
-0.000000
0.000000
-0.000000
-0.000000
-0.000000
-0.000000
0.000000
-0.000000
0.000000
-0.000000
-0.000000
0.000000
-0.000000
0.000000
0.000000
0.000000
0.000000
0.000000
0.000000
0.000000
0.000000
0.000000
0.000000
0.000000
0.000000
0.000000
-0.000000
0.000000
-0.000000
0.000000
-0.000000
0.000000
-0.000000
-0.000000
-0.000000
0.000000
-0.000000
0.000000
-0.000000
-0.000000
-0.000000
-0.000000
-0.000000
0.000000
-0.000000
0.000000
-0.000000
-0.000000
-0.000000
-0.000000
-0.000000
-0.000000
-0.000000
-0.000000
-0.000000
-0.000000
-0.000000
-0.000000
0.000000
-0.000000
0.000000
-0.000000
-0.000000
-0.000000
-0.000000
-0.000000
-0.000000
-0.000000
-0.000000
-0.000000
-0.000000
-0.000000
-0.000000
-0.000000
0.000000
-0.000000
0.000000
-0.000000
0.000000
-0.000000
0.000000
-0.000000
-0.000000
-0.000000
-0.000000
-0.000000
-0.000000
-0.000000
-0.000000
-0.000000
-0.000000
-0.000000
-0.000000
-0.000000
0.000000
-0.000000
0.000000
0.000000
-0.000000
-0.000000
-0.000000
-0.000000
-0.000000
-0.000000
-0.000000
-0.000000
-0.000000
-0.000000
-0.000000
-0.000000
-0.000000
0.000000
-0.000000
0.000000
-0.000000
0.000000
-0.000000
0.000000

SCALARS sigma_yy FLOAT 1
LOOKUP_TABLE default
-1985.517665
-1985.517665
-1985.517665
-1985.517665
-1955.223485
-1952.371965
-1955.223485
-1952.371965
-1924.923476
-1919.268123
-1924.923476
-1919.268123
-1894.621405
-1886.214531
-1894.621405
-1886.214531
-1864.300243
-1853.139517
-1864.300243
-1853.139517
-1834.052343
-1821.465742
-1834.052343
-1821.465742
-1803.564299
-1790.955263
-1803.564299
-1790.955263
-1771.840425
-1760.664398
-1771.840425
-1760.664398
-1738.894385
-1730.288927
-1738.894385
-1730.288927
-1706.050730
-1699.923870
-1706.050730
-1699.923870
-1673.249599
-1669.533831
-1673.249599
-1669.533831
-1640.410430
-1639.234745
-1640.410430
-1639.234745
-1609.255087
-1609.255087
-1609.255087
-1609.255087
-1579.389731
-1578.504098
-1579.389731
-1578.504098
-1549.046143
-1545.728310
-1549.046143
-1545.728310
-1518.604896
-1513.069286
-1518.604896
-1513.069286
-1488.168976
-1480.440159
-1488.168976
-1480.440159
-1457.724021
-1447.854514
-1457.724021
-1447.854514
-1427.266318
-1415.269533
-1427.266318
-1415.269533
-1396.843547
-1383.715112
-1396.843547
-1383.715112
-1366.278577
-1353.111770
-1366.278577
-1353.111770
-1334.789176
-1322.633669
-1334.789176
-1322.633669
-1302.321254
-1292.105097
-1302.321254
-1292.105097
-1269.926863
-1261.572636
-1269.926863
-1261.572636
-1237.565679
-1231.029876
-1237.565679
-1231.029876
-1205.241126
-1200.478442
-1205.241126
-1200.478442
-1172.954884
-1169.914129
-1172.954884
-1169.914129
-1140.682437
-1139.365703
-1140.682437
-1139.365703
-1108.898565
-1108.898565
-1108.898565
-1108.898565
-1078.926366
-1078.685284
-1078.926366
-1078.685284
-1048.322673
-1046.458954
-1048.322673
-1046.458954
-1017.686501
-1014.287777
-1017.686501
-1014.287777
-987.040838
-982.149465
-987.040838
-982.149465
-956.383593
-950.045211
-956.383593
-950.045211
-925.714763
-917.974558
-925.714763
-917.974558
-895.034047
-885.937242
-895.034047
-885.937242
-864.341183
-853.932963
-864.341183
-853.932963
-833.635907
-821.961485
-833.635907
-821.961485
-802.917874
-790.021879
-802.917874
-790.021879
-772.187514
-758.129818
-772.187514
-758.129818
-741.442147
-727.295713
-741.442147
-727.295713
-710.633490
-696.487088
-710.633490
-696.487088
-678.792843
-665.663281
-678.792843
-665.663281
-646.984033
-634.824542
-646.984033
-634.824542
-615.206197
-603.970507
-615.206197
-603.970507
-583.459063
-573.100830
-583.459063
-573.100830
-551.742333
-542.215155
-551.742333
-542.215155
-520.055712
-511.313116
-520.055712
-511.313116
-488.398905
-480.394340
-488.398905
-480.394340
-456.771614
-449.458442
-456.771614
-449.458442
-425.173539
-418.505028
-425.173539
-418.505028
-393.604383
-387.533696
-393.604383
-387.533696
-362.063842
-356.544032
-362.063842
-356.544032
-330.551614
-325.535611
-330.551614
-325.535611
-299.067394
-294.507999
-299.067394
-294.507999
-267.610875
-263.460751
-267.610875
-263.460751
-236.181747
-232.393410
-236.181747
-232.393410
-204.779708
-201.305497
-204.779708
-201.305497
-173.404360
-170.196637
-173.404360
-170.196637
-142.056197
-139.065301
-142.056197
-139.065301
-110.726344
-107.921720
-110.726344
-107.921720
-79.510186
-76.646971
-79.510186
-76.646971
-47.287054
-46.613955
-47.287054
-46.613955
-27.595272
-1.298066
-27.595272
-1.298066

SCALARS sigma_zz FLOAT 1
LOOKUP_TABLE default
0.000000
0.000000
0.000000
0.000000
0.000000
0.000000
0.000000
0.000000
0.000000
0.000000
0.000000
0.000000
0.000000
0.000000
0.000000
0.000000
0.000000
0.000000
0.000000
0.000000
0.000000
0.000000
0.000000
0.000000
0.000000
0.000000
0.000000
0.000000
0.000000
0.000000
0.000000
0.000000
0.000000
0.000000
0.000000
0.000000
0.000000
0.000000
0.000000
0.000000
0.000000
0.000000
0.000000
0.000000
0.000000
0.000000
0.000000
0.000000
0.000000
0.000000
0.000000
0.000000
0.000000
0.000000
0.000000
0.000000
0.000000
0.000000
0.000000
0.000000
0.000000
0.000000
0.000000
0.000000
0.000000
0.000000
0.000000
0.000000
0.000000
0.000000
0.000000
0.000000
0.000000
0.000000
0.000000
0.000000
0.000000
0.000000
0.000000
0.000000
0.000000
0.000000
0.000000
0.000000
0.000000
0.000000
0.000000
0.000000
0.000000
0.000000
0.000000
0.000000
0.000000
0.000000
0.000000
0.000000
0.000000
0.000000
0.000000
0.000000
0.000000
0.000000
0.000000
0.000000
0.000000
0.000000
0.000000
0.000000
0.000000
0.000000
0.000000
0.000000
0.000000
0.000000
0.000000
0.000000
0.000000
0.000000
0.000000
0.000000
0.000000
0.000000
0.000000
0.000000
0.000000
0.000000
0.000000
0.000000
0.000000
0.000000
0.000000
0.000000
0.000000
0.000000
0.000000
0.000000
0.000000
0.000000
0.000000
0.000000
0.000000
0.000000
0.000000
0.000000
0.000000
0.000000
0.000000
0.000000
0.000000
0.000000
0.000000
0.000000
0.000000
0.000000
0.000000
0.000000
0.000000
0.000000
0.000000
0.000000
0.000000
0.000000
0.000000
0.000000
0.000000
0.000000
0.000000
0.000000
0.000000
0.000000
0.000000
0.000000
0.000000
0.000000
0.000000
0.000000
0.000000
0.000000
0.000000
0.000000
0.000000
0.000000
0.000000
0.000000
0.000000
0.000000
0.000000
0.000000
0.000000
0.000000
0.000000
0.000000
0.000000
0.000000
0.000000
0.000000
0.000000
0.000000
0.000000
0.000000
0.000000
0.000000
0.000000
0.000000
0.000000
0.000000
0.000000
0.000000
0.000000
0.000000
0.000000
0.000000
0.000000
0.000000
0.000000
0.000000
0.000000
0.000000
0.000000
0.000000
0.000000
0.000000
0.000000
0.000000
0.000000
0.000000
0.000000
0.000000
0.000000
0.000000
0.000000
0.000000
0.000000
0.000000
0.000000
0.000000
0.000000
0.000000
0.000000
0.000000
0.000000
0.000000
0.000000
0.000000
0.000000
0.000000
0.000000
0.000000
0.000000
0.000000
0.000000
0.000000
0.000000
0.000000
0.000000
0.000000

SCALARS sigma_xy FLOAT 1
LOOKUP_TABLE default
0.000000
0.000000
0.000000
0.000000
0.000000
0.000000
0.000000
0.000000
0.000000
0.000000
0.000000
0.000000
0.000000
0.000000
0.000000
0.000000
0.000000
0.000000
0.000000
0.000000
0.000000
0.000000
0.000000
0.000000
0.000000
0.000000
0.000000
0.000000
0.000000
0.000000
0.000000
0.000000
0.000000
0.000000
0.000000
0.000000
0.000000
0.000000
0.000000
0.000000
0.000000
0.000000
0.000000
0.000000
0.000000
0.000000
0.000000
0.000000
0.000000
0.000000
0.000000
0.000000
-0.000000
0.000000
-0.000000
0.000000
0.000000
0.000000
0.000000
0.000000
0.000000
0.000000
0.000000
0.000000
0.000000
0.000000
0.000000
0.000000
0.000000
0.000000
0.000000
0.000000
-0.000000
0.000000
0.000000
0.000000
0.000000
0.000000
0.000000
0.000000
0.000000
0.000000
0.000000
0.000000
-0.000000
0.000000
-0.000000
0.000000
0.000000
0.000000
0.000000
0.000000
0.000000
0.000000
0.000000
0.000000
-0.000000
0.000000
-0.000000
0.000000
-0.000000
-0.000000
-0.000000
-0.000000
-0.000000
0.000000
-0.000000
0.000000
0.000000
0.000000
0.000000
0.000000
0.000000
0.000000
0.000000
0.000000
0.000000
0.000000
0.000000
0.000000
0.000000
0.000000
0.000000
0.000000
-0.000000
0.000000
-0.000000
0.000000
0.000000
0.000000
0.000000
0.000000
0.000000
0.000000
0.000000
0.000000
-0.000000
0.000000
-0.000000
0.000000
0.000000
0.000000
0.000000
0.000000
0.000000
0.000000
0.000000
0.000000
0.000000
0.000000
0.000000
0.000000
0.000000
0.000000
0.000000
0.000000
0.000000
0.000000
0.000000
0.000000
0.000000
0.000000
0.000000
0.000000
0.000000
0.000000
0.000000
0.000000
0.000000
0.000000
0.000000
-0.000000
-0.000000
0.000000
-0.000000
0.000000
-0.000000
-0.000000
-0.000000
-0.000000
-0.000000
0.000000
-0.000000
0.000000
-0.000000
-0.000000
-0.000000
-0.000000
-0.000000
0.000000
-0.000000
0.000000
-0.000000
0.000000
-0.000000
0.000000
0.000000
0.000000
0.000000
0.000000
0.000000
0.000000
0.000000
0.000000
0.000000
0.000000
0.000000
0.000000
0.000000
0.000000
0.000000
0.000000
0.000000
-0.000000
0.000000
0.000000
0.000000
0.000000
0.000000
0.000000
0.000000
0.000000
0.000000
0.000000
0.000000
-0.000000
0.000000
-0.000000
-0.000000
-0.000000
-0.000000
-0.000000
0.000000
-0.000000
0.000000
0.000000
0.000000
-0.000000
0.000000
-0.000000
-0.000000
0.000000
-0.000000
0.000000
-0.000000
-0.000000
-0.000000
-0.000000
-0.000000
0.000000
-0.000000
0.000000
0.000000
0.000000
0.000000
0.000000

SCALARS sigma_yz FLOAT 1
LOOKUP_TABLE default
0.000000
0.000000
0.000000
0.000000
0.000000
0.000000
0.000000
0.000000
0.000000
0.000000
0.000000
0.000000
0.000000
0.000000
0.000000
0.000000
0.000000
0.000000
0.000000
0.000000
0.000000
0.000000
0.000000
0.000000
0.000000
0.000000
0.000000
0.000000
0.000000
0.000000
0.000000
0.000000
0.000000
0.000000
0.000000
0.000000
0.000000
0.000000
0.000000
0.000000
0.000000
0.000000
0.000000
0.000000
0.000000
0.000000
0.000000
0.000000
0.000000
0.000000
0.000000
0.000000
0.000000
0.000000
0.000000
0.000000
0.000000
0.000000
0.000000
0.000000
0.000000
0.000000
0.000000
0.000000
0.000000
0.000000
0.000000
0.000000
0.000000
0.000000
0.000000
0.000000
0.000000
0.000000
0.000000
0.000000
0.000000
0.000000
0.000000
0.000000
0.000000
0.000000
0.000000
0.000000
0.000000
0.000000
0.000000
0.000000
0.000000
0.000000
0.000000
0.000000
0.000000
0.000000
0.000000
0.000000
0.000000
0.000000
0.000000
0.000000
0.000000
0.000000
0.000000
0.000000
0.000000
0.000000
0.000000
0.000000
0.000000
0.000000
0.000000
0.000000
0.000000
0.000000
0.000000
0.000000
0.000000
0.000000
0.000000
0.000000
0.000000
0.000000
0.000000
0.000000
0.000000
0.000000
0.000000
0.000000
0.000000
0.000000
0.000000
0.000000
0.000000
0.000000
0.000000
0.000000
0.000000
0.000000
0.000000
0.000000
0.000000
0.000000
0.000000
0.000000
0.000000
0.000000
0.000000
0.000000
0.000000
0.000000
0.000000
0.000000
0.000000
0.000000
0.000000
0.000000
0.000000
0.000000
0.000000
0.000000
0.000000
0.000000
0.000000
0.000000
0.000000
0.000000
0.000000
0.000000
0.000000
0.000000
0.000000
0.000000
0.000000
0.000000
0.000000
0.000000
0.000000
0.000000
0.000000
0.000000
0.000000
0.000000
0.000000
0.000000
0.000000
0.000000
0.000000
0.000000
0.000000
0.000000
0.000000
0.000000
0.000000
0.000000
0.000000
0.000000
0.000000
0.000000
0.000000
0.000000
0.000000
0.000000
0.000000
0.000000
0.000000
0.000000
0.000000
0.000000
0.000000
0.000000
0.000000
0.000000
0.000000
0.000000
0.000000
0.000000
0.000000
0.000000
0.000000
0.000000
0.000000
0.000000
0.000000
0.000000
0.000000
0.000000
0.000000
0.000000
0.000000
0.000000
0.000000
0.000000
0.000000
0.000000
0.000000
0.000000
0.000000
0.000000
0.000000
0.000000
0.000000
0.000000
0.000000
0.000000
0.000000
0.000000
0.000000
0.000000
0.000000
0.000000
0.000000
0.000000
0.000000
0.000000
0.000000
0.000000

SCALARS sigma_zx FLOAT 1
LOOKUP_TABLE default
0.000000
0.000000
0.000000
0.000000
0.000000
0.000000
0.000000
0.000000
0.000000
0.000000
0.000000
0.000000
0.000000
0.000000
0.000000
0.000000
0.000000
0.000000
0.000000
0.000000
0.000000
0.000000
0.000000
0.000000
0.000000
0.000000
0.000000
0.000000
0.000000
0.000000
0.000000
0.000000
0.000000
0.000000
0.000000
0.000000
0.000000
0.000000
0.000000
0.000000
0.000000
0.000000
0.000000
0.000000
0.000000
0.000000
0.000000
0.000000
0.000000
0.000000
0.000000
0.000000
0.000000
0.000000
0.000000
0.000000
0.000000
0.000000
0.000000
0.000000
0.000000
0.000000
0.000000
0.000000
0.000000
0.000000
0.000000
0.000000
0.000000
0.000000
0.000000
0.000000
0.000000
0.000000
0.000000
0.000000
0.000000
0.000000
0.000000
0.000000
0.000000
0.000000
0.000000
0.000000
0.000000
0.000000
0.000000
0.000000
0.000000
0.000000
0.000000
0.000000
0.000000
0.000000
0.000000
0.000000
0.000000
0.000000
0.000000
0.000000
0.000000
0.000000
0.000000
0.000000
0.000000
0.000000
0.000000
0.000000
0.000000
0.000000
0.000000
0.000000
0.000000
0.000000
0.000000
0.000000
0.000000
0.000000
0.000000
0.000000
0.000000
0.000000
0.000000
0.000000
0.000000
0.000000
0.000000
0.000000
0.000000
0.000000
0.000000
0.000000
0.000000
0.000000
0.000000
0.000000
0.000000
0.000000
0.000000
0.000000
0.000000
0.000000
0.000000
0.000000
0.000000
0.000000
0.000000
0.000000
0.000000
0.000000
0.000000
0.000000
0.000000
0.000000
0.000000
0.000000
0.000000
0.000000
0.000000
0.000000
0.000000
0.000000
0.000000
0.000000
0.000000
0.000000
0.000000
0.000000
0.000000
0.000000
0.000000
0.000000
0.000000
0.000000
0.000000
0.000000
0.000000
0.000000
0.000000
0.000000
0.000000
0.000000
0.000000
0.000000
0.000000
0.000000
0.000000
0.000000
0.000000
0.000000
0.000000
0.000000
0.000000
0.000000
0.000000
0.000000
0.000000
0.000000
0.000000
0.000000
0.000000
0.000000
0.000000
0.000000
0.000000
0.000000
0.000000
0.000000
0.000000
0.000000
0.000000
0.000000
0.000000
0.000000
0.000000
0.000000
0.000000
0.000000
0.000000
0.000000
0.000000
0.000000
0.000000
0.000000
0.000000
0.000000
0.000000
0.000000
0.000000
0.000000
0.000000
0.000000
0.000000
0.000000
0.000000
0.000000
0.000000
0.000000
0.000000
0.000000
0.000000
0.000000
0.000000
0.000000
0.000000
0.000000
0.000000
0.000000
0.000000
0.000000
0.000000
0.000000
0.000000
0.000000
0.000000
0.000000

SCALARS u_x FLOAT 1
LOOKUP_TABLE default
0.000000
0.000000
0.000000
0.000000
0.000000
0.000000
0.000000
0.000000
0.000000
0.000000
0.000000
0.000000
0.000000
0.000000
0.000000
0.000000
0.000000
0.000000
0.000000
0.000000
0.000000
0.000000
0.000000
0.000000
0.000000
0.000000
0.000000
0.000000
0.000000
0.000000
0.000000
0.000000
0.000000
0.000000
0.000000
0.000000
0.000000
0.000000
0.000000
0.000000
0.000000
0.000000
0.000000
0.000000
0.000000
0.000000
0.000000
0.000000
0.000000
0.000000
0.000000
0.000000
0.000000
0.000000
0.000000
0.000000
0.000000
0.000000
0.000000
0.000000
0.000000
0.000000
0.000000
0.000000
0.000000
0.000000
0.000000
0.000000
0.000000
0.000000
0.000000
0.000000
0.000000
0.000000
0.000000
0.000000
0.000000
0.000000
0.000000
0.000000
0.000000
0.000000
0.000000
0.000000
0.000000
0.000000
0.000000
0.000000
0.000000
0.000000
0.000000
0.000000
0.000000
0.000000
0.000000
0.000000
0.000000
0.000000
0.000000
0.000000
0.000000
0.000000
0.000000
0.000000
0.000000
0.000000
0.000000
0.000000
0.000000
0.000000
0.000000
0.000000
0.000000
0.000000
0.000000
0.000000
0.000000
0.000000
0.000000
0.000000
0.000000
0.000000
0.000000
0.000000
0.000000
0.000000
0.000000
0.000000
0.000000
0.000000
0.000000
0.000000
0.000000
0.000000
0.000000
0.000000
0.000000
0.000000
0.000000
0.000000
0.000000
0.000000
0.000000
0.000000
0.000000
0.000000
0.000000
0.000000
0.000000
0.000000
0.000000
0.000000
0.000000
0.000000
0.000000
0.000000
0.000000
0.000000
0.000000
0.000000
0.000000
0.000000
0.000000
0.000000
0.000000
0.000000
0.000000
0.000000
0.000000
0.000000
0.000000
0.000000
0.000000
0.000000
0.000000
0.000000
0.000000
0.000000
0.000000
0.000000
0.000000
0.000000
0.000000
0.000000
0.000000
0.000000
0.000000
0.000000
0.000000
0.000000
0.000000
0.000000
0.000000
0.000000
0.000000
0.000000
0.000000
0.000000
0.000000
0.000000
0.000000
0.000000
0.000000
0.000000
0.000000
0.000000
0.000000
0.000000
0.000000
0.000000
0.000000
0.000000
0.000000
0.000000
0.000000
0.000000
0.000000
0.000000
0.000000
0.000000
0.000000
0.000000
0.000000
0.000000
0.000000
0.000000
0.000000
0.000000
0.000000
0.000000
0.000000
0.000000
0.000000
0.000000
0.000000
0.000000
0.000000
0.000000
0.000000
0.000000
0.000000
0.000000
0.000000
0.000000
0.000000
0.000000
0.000000
0.000000
0.000000
0.000000
0.000000
0.000000
0.000000
0.000000
0.000000
0.000000

SCALARS u_y FLOAT 1
LOOKUP_TABLE default
-0.030183
-0.090548
-0.030183
-0.090548
-0.150578
-0.210154
-0.150578
-0.210154
-0.269436
-0.328232
-0.269436
-0.328232
-0.386748
-0.444772
-0.386748
-0.444772
-0.502506
-0.559763
-0.502506
-0.559763
-0.616697
-0.673215
-0.616697
-0.673215
-0.729368
-0.785157
-0.729368
-0.785157
-0.840522
-0.895559
-0.840522
-0.895559
-0.950110
-1.004362
-0.950110
-1.004362
-1.058106
-1.111558
-1.058106
-1.111558
-1.164500
-1.217137
-1.164500
-1.217137
-1.269282
-1.321088
-1.269282
-1.321088
-1.372464
-1.423466
-1.372464
-1.423466
-1.474092
-1.524296
-1.474092
-1.524296
-1.574148
-1.623503
-1.574148
-1.623503
-1.672538
-1.721049
-1.672538
-1.721049
-1.769253
-1.816924
-1.769253
-1.816924
-1.864284
-1.911117
-1.864284
-1.911117
-1.957620
-2.003617
-1.957620
-2.003617
-2.049247
-2.094425
-2.049247
-2.094425
-2.139199
-2.183566
-2.139199
-2.183566
-2.227477
-2.271013
-2.227477
-2.271013
-2.314035
-2.356712
-2.314035
-2.356712
-2.398846
-2.440652
-2.398846
-2.440652
-2.481900
-2.522822
-2.481900
-2.522822
-2.563183
-2.603210
-2.563183
-2.603210
-2.642684
-2.681803
-2.642684
-2.681803
-2.720389
-2.758588
-2.720389
-2.758588
-2.796293
-2.833574
-2.796293
-2.833574
-2.870422
-2.906822
-2.870422
-2.906822
-2.942801
-2.978258
-2.942801
-2.978258
-3.013325
-3.047838
-3.013325
-3.047838
-3.081983
-3.115549
-3.081983
-3.115549
-3.148760
-3.181377
-3.148760
-3.181377
-3.213643
-3.245309
-3.213643
-3.245309
-3.276619
-3.307330
-3.276619
-3.307330
-3.337674
-3.367425
-3.337674
-3.367425
-3.396793
-3.425581
-3.396793
-3.425581
-3.453962
-3.481783
-3.453962
-3.481783
-3.509167
-3.536015
-3.509167
-3.536015
-3.562393
-3.588281
-3.562393
-3.588281
-3.613676
-3.638593
-3.613676
-3.638593
-3.662966
-3.686886
-3.662966
-3.686886
-3.710231
-3.733144
-3.710231
-3.733144
-3.755456
-3.777350
-3.755456
-3.777350
-3.798623
-3.819489
-3.798623
-3.819489
-3.839716
-3.859544
-3.839716
-3.859544
-3.878719
-3.897498
-3.878719
-3.897498
-3.915614
-3.933334
-3.915614
-3.933334
-3.950384
-3.967036
-3.950384
-3.967036
-3.983012
-3.998585
-3.983012
-3.998585
-4.013479
-4.027963
-4.013479
-4.027963
-4.041767
-4.055153
-4.041767
-4.055153
-4.067858
-4.080136
-4.067858
-4.080136
-4.091733
-4.102894
-4.091733
-4.102894
-4.113373
-4.123406
-4.113373
-4.123406
-4.132758
-4.141654
-4.132758
-4.141654
-4.149869
-4.157617
-4.149869
-4.157617
-4.164686
-4.171276
-4.164686
-4.171276
-4.177188
-4.182611
-4.177188
-4.182611
-4.187354
-4.191599
-4.187354
-4.191599
-4.195165
-4.198224
-4.195165
-4.198224
-4.200576
-4.202408
-4.200576
-4.202408
-4.203838
-4.204827
-4.203838
-4.204827

