# vtk DataFile Version 2.0
MATLAB generated vtk file, WMC
ASCII
DATASET UNSTRUCTURED_GRID
POINTS 256 double
0.195312 0.089921 0.000000 
0.195312 0.269763 0.000000 
0.585938 0.089921 0.000000 
0.585938 0.269763 0.000000 
0.195312 0.449853 0.000000 
0.195312 0.630760 0.000000 
0.585938 0.449853 0.000000 
0.585938 0.630760 0.000000 
0.195312 0.812432 0.000000 
0.195312 0.994754 0.000000 
0.585938 0.812432 0.000000 
0.585938 0.994754 0.000000 
0.195312 1.177614 0.000000 
0.195312 1.361133 0.000000 
0.585938 1.177614 0.000000 
0.585938 1.361133 0.000000 
0.195312 1.545347 0.000000 
0.195312 1.730267 0.000000 
0.585938 1.545347 0.000000 
0.585938 1.730267 0.000000 
0.195312 1.915794 0.000000 
0.195312 2.102001 0.000000 
0.585938 1.915794 0.000000 
0.585938 2.102001 0.000000 
0.195312 2.288901 0.000000 
0.195312 2.476526 0.000000 
0.585938 2.288901 0.000000 
0.585938 2.476526 0.000000 
0.195312 2.664782 0.000000 
0.195312 2.853745 0.000000 
0.585938 2.664782 0.000000 
0.585938 2.853745 0.000000 
0.195312 3.043447 0.000000 
0.195312 3.233877 0.000000 
0.585938 3.043447 0.000000 
0.585938 3.233877 0.000000 
0.195312 3.424990 0.000000 
0.195312 3.616816 0.000000 
0.585938 3.424990 0.000000 
0.585938 3.616816 0.000000 
0.195312 3.809434 0.000000 
0.195312 4.002796 0.000000 
0.585938 3.809434 0.000000 
0.585938 4.002796 0.000000 
0.195312 4.196890 0.000000 
0.195312 4.391686 0.000000 
0.585938 4.196890 0.000000 
0.585938 4.391686 0.000000 
0.195312 4.587303 0.000000 
0.195312 4.783706 0.000000 
0.585938 4.587303 0.000000 
0.585938 4.783706 0.000000 
0.195312 4.980898 0.000000 
0.195312 5.178788 0.000000 
0.585938 4.980898 0.000000 
0.585938 5.178788 0.000000 
0.195312 5.377550 0.000000 
0.195312 5.577109 0.000000 
0.585938 5.377550 0.000000 
0.585938 5.577109 0.000000 
0.195312 5.777459 0.000000 
0.195312 5.978664 0.000000 
0.585938 5.777459 0.000000 
0.585938 5.978664 0.000000 
0.195312 6.180750 0.000000 
0.195312 6.383702 0.000000 
0.585938 6.180750 0.000000 
0.585938 6.383702 0.000000 
0.195312 6.587310 0.000000 
0.195312 6.791847 0.000000 
0.585938 6.587310 0.000000 
0.585938 6.791847 0.000000 
0.195312 6.997212 0.000000 
0.195312 7.203528 0.000000 
0.585938 6.997212 0.000000 
0.585938 7.203528 0.000000 
0.195312 7.410703 0.000000 
0.195312 7.618820 0.000000 
0.585938 7.410703 0.000000 
0.585938 7.618820 0.000000 
0.195312 7.827969 0.000000 
0.195312 8.037826 0.000000 
0.585938 7.827969 0.000000 
0.585938 8.037826 0.000000 
0.195312 8.248749 0.000000 
0.195312 8.460450 0.000000 
0.585938 8.248749 0.000000 
0.585938 8.460450 0.000000 
0.195312 8.673246 0.000000 
0.195312 8.886913 0.000000 
0.585938 8.673246 0.000000 
0.585938 8.886913 0.000000 
0.195312 9.101583 0.000000 
0.195312 9.317321 0.000000 
0.585938 9.101583 0.000000 
0.585938 9.317321 0.000000 
0.195312 9.533968 0.000000 
0.195312 9.751711 0.000000 
0.585938 9.533968 0.000000 
0.585938 9.751711 0.000000 
0.195312 9.970341 0.000000 
0.195312 10.190056 0.000000 
0.585938 9.970341 0.000000 
0.585938 10.190056 0.000000 
0.195312 10.410910 0.000000 
0.195312 10.632703 0.000000 
0.585938 10.410910 0.000000 
0.585938 10.632703 0.000000 
0.195312 10.855789 0.000000 
0.195312 11.079742 0.000000 
0.585938 10.855789 0.000000 
0.585938 11.079742 0.000000 
0.195312 11.304875 0.000000 
0.195312 11.531072 0.000000 
0.585938 11.304875 0.000000 
0.585938 11.531072 0.000000 
0.195312 11.758380 0.000000 
0.195312 11.986948 0.000000 
0.585938 11.758380 0.000000 
0.585938 11.986948 0.000000 
0.195312 12.216603 0.000000 
0.195312 12.447560 0.000000 
0.585938 12.216603 0.000000 
0.585938 12.447560 0.000000 
0.195312 12.679580 0.000000 
0.195312 12.912849 0.000000 
0.585938 12.679580 0.000000 
0.585938 12.912849 0.000000 
0.195312 13.147491 0.000000 
0.195312 13.383175 0.000000 
0.585938 13.147491 0.000000 
0.585938 13.383175 0.000000 
0.195312 13.620229 0.000000 
0.195312 13.858479 0.000000 
0.585938 13.620229 0.000000 
0.585938 13.858479 0.000000 
0.195312 14.098002 0.000000 
0.195312 14.339072 0.000000 
0.585938 14.098002 0.000000 
0.585938 14.339072 0.000000 
0.195312 14.581174 0.000000 
0.195312 14.824898 0.000000 
0.585938 14.581174 0.000000 
0.585938 14.824898 0.000000 
0.195312 15.069807 0.000000 
0.195312 15.316210 0.000000 
0.585938 15.069807 0.000000 
0.585938 15.316210 0.000000 
0.195312 15.564104 0.000000 
0.195312 15.813292 0.000000 
0.585938 15.564104 0.000000 
0.585938 15.813292 0.000000 
0.195312 16.064066 0.000000 
0.195312 16.316321 0.000000 
0.585938 16.064066 0.000000 
0.585938 16.316321 0.000000 
0.195312 16.569936 0.000000 
0.195312 16.825349 0.000000 
0.585938 16.569936 0.000000 
0.585938 16.825349 0.000000 
0.195312 17.082140 0.000000 
0.195312 17.340714 0.000000 
0.585938 17.082140 0.000000 
0.585938 17.340714 0.000000 
0.195312 17.600727 0.000000 
0.195312 17.862414 0.000000 
0.585938 17.600727 0.000000 
0.585938 17.862414 0.000000 
0.195312 18.126035 0.000000 
0.195312 18.390941 0.000000 
0.585938 18.126035 0.000000 
0.585938 18.390941 0.000000 
0.195312 18.658001 0.000000 
0.195312 18.926491 0.000000 
0.585938 18.658001 0.000000 
0.585938 18.926491 0.000000 
0.195312 19.197003 0.000000 
0.195312 19.469276 0.000000 
0.585938 19.197003 0.000000 
0.585938 19.469276 0.000000 
0.195312 19.743450 0.000000 
0.195312 20.019508 0.000000 
0.585938 19.743450 0.000000 
0.585938 20.019508 0.000000 
0.195312 20.297450 0.000000 
0.195312 20.577222 0.000000 
0.585938 20.297450 0.000000 
0.585938 20.577222 0.000000 
0.195312 20.859254 0.000000 
0.195312 21.143039 0.000000 
0.585938 20.859254 0.000000 
0.585938 21.143039 0.000000 
0.195312 21.429380 0.000000 
0.195312 21.717379 0.000000 
0.585938 21.429380 0.000000 
0.585938 21.717379 0.000000 
0.195312 22.008072 0.000000 
0.195312 22.300795 0.000000 
0.585938 22.008072 0.000000 
0.585938 22.300795 0.000000 
0.195312 22.595911 0.000000 
0.195312 22.893191 0.000000 
0.585938 22.595911 0.000000 
0.585938 22.893191 0.000000 
0.195312 23.192647 0.000000 
0.195312 23.494993 0.000000 
0.585938 23.192647 0.000000 
0.585938 23.494993 0.000000 
0.195312 23.799574 0.000000 
0.195312 24.107075 0.000000 
0.585938 23.799574 0.000000 
0.585938 24.107075 0.000000 
0.195312 24.416708 0.000000 
0.195312 24.729037 0.000000 
0.585938 24.416708 0.000000 
0.585938 24.729037 0.000000 
0.195312 25.044384 0.000000 
0.195312 25.362425 0.000000 
0.585938 25.044384 0.000000 
0.585938 25.362425 0.000000 
0.195312 25.683555 0.000000 
0.195312 26.007268 0.000000 
0.585938 25.683555 0.000000 
0.585938 26.007268 0.000000 
0.195312 26.334512 0.000000 
0.195312 26.664859 0.000000 
0.585938 26.334512 0.000000 
0.585938 26.664859 0.000000 
0.195312 26.998149 0.000000 
0.195312 27.334617 0.000000 
0.585938 26.998149 0.000000 
0.585938 27.334617 0.000000 
0.195312 27.674394 0.000000 
0.195312 28.018072 0.000000 
0.585938 27.674394 0.000000 
0.585938 28.018072 0.000000 
0.195312 28.364849 0.000000 
0.195312 28.716009 0.000000 
0.585938 28.364849 0.000000 
0.585938 28.716009 0.000000 
0.195312 29.070494 0.000000 
0.195312 29.429552 0.000000 
0.585938 29.070494 0.000000 
0.585938 29.429552 0.000000 
0.195312 29.792112 0.000000 
0.195312 30.159581 0.000000 
0.585938 29.792112 0.000000 
0.585938 30.159581 0.000000 
0.195312 30.530741 0.000000 
0.195312 30.907389 0.000000 
0.585938 30.530741 0.000000 
0.585938 30.907389 0.000000 
0.195312 31.287666 0.000000 
0.195312 31.671914 0.000000 
0.585938 31.287666 0.000000 
0.585938 31.671914 0.000000 

POINT_DATA 256
SCALARS sigma_xx FLOAT 1
LOOKUP_TABLE default
0.000000
0.000000
0.000000
0.000000
0.000000
-0.000000
0.000000
-0.000000
0.000000
0.000000
0.000000
0.000000
-0.000000
-0.000000
-0.000000
-0.000000
-0.000000
0.000000
-0.000000
0.000000
-0.000000
-0.000000
-0.000000
-0.000000
-0.000000
-0.000000
-0.000000
-0.000000
-0.000000
-0.000000
-0.000000
-0.000000
-0.000000
0.000000
-0.000000
0.000000
-0.000000
-0.000000
-0.000000
-0.000000
-0.000000
-0.000000
-0.000000
-0.000000
-0.000000
0.000000
-0.000000
-0.000000
-0.000000
0.000000
-0.000000
0.000000
-0.000000
-0.000000
-0.000000
-0.000000
0.000000
-0.000000
0.000000
-0.000000
-0.000000
-0.000000
-0.000000
-0.000000
-0.000000
-0.000000
-0.000000
-0.000000
-0.000000
-0.000000
0.000000
-0.000000
-0.000000
-0.000000
-0.000000
-0.000000
-0.000000
0.000000
-0.000000
0.000000
-0.000000
-0.000000
-0.000000
-0.000000
-0.000000
-0.000000
-0.000000
-0.000000
-0.000000
-0.000000
-0.000000
-0.000000
-0.000000
-0.000000
-0.000000
-0.000000
-0.000000
-0.000000
-0.000000
-0.000000
-0.000000
-0.000000
-0.000000
-0.000000
-0.000000
0.000000
-0.000000
0.000000
-0.000000
-0.000000
-0.000000
-0.000000
-0.000000
0.000000
-0.000000
0.000000
0.000000
-0.000000
0.000000
-0.000000
-0.000000
-0.000000
-0.000000
-0.000000
0.000000
0.000000
0.000000
-0.000000
-0.000000
-0.000000
0.000000
-0.000000
-0.000000
-0.000000
-0.000000
-0.000000
-0.000000
-0.000000
-0.000000
-0.000000
-0.000000
-0.000000
-0.000000
-0.000000
-0.000000
0.000000
-0.000000
0.000000
-0.000000
-0.000000
-0.000000
-0.000000
-0.000000
-0.000000
-0.000000
-0.000000
-0.000000
-0.000000
-0.000000
-0.000000
-0.000000
0.000000
0.000000
0.000000
-0.000000
0.000000
-0.000000
-0.000000
-0.000000
-0.000000
-0.000000
-0.000000
0.000000
-0.000000
0.000000
-0.000000
-0.000000
-0.000000
-0.000000
-0.000000
-0.000000
-0.000000
-0.000000
-0.000000
-0.000000
-0.000000
-0.000000
-0.000000
-0.000000
-0.000000
-0.000000
-0.000000
-0.000000
-0.000000
-0.000000
-0.000000
-0.000000
-0.000000
-0.000000
-0.000000
-0.000000
0.000000
0.000000
0.000000
-0.000000
0.000000
0.000000
0.000000
-0.000000
-0.000000
-0.000000
-0.000000
0.000000
0.000000
0.000000
-0.000000
-0.000000
-0.000000
-0.000000
-0.000000
-0.000000
-0.000000
-0.000000
-0.000000
0.000000
-0.000000
0.000000
-0.000000
0.000000
-0.000000
0.000000
-0.000000
-0.000000
-0.000000
-0.000000
0.000000
-0.000000
-0.000000
-0.000000
-0.000000
0.000000
-0.000000
-0.000000
-0.000000
-0.000000
-0.000000
-0.000000
-0.000000
0.000000
-0.000000
-0.000000
-0.000000
0.000000
-0.000000
0.000000
-0.000000

SCALARS sigma_yy FLOAT 1
LOOKUP_TABLE default
-16847.863810
-16847.863810
-16847.863810
-16847.863810
-16708.074861
-16546.640488
-16708.074861
-16546.640488
-16375.942827
-16280.731664
-16375.942827
-16280.731664
-16140.835066
-16017.426301
-16140.835066
-16017.426301
-15858.636609
-15742.430251
-15858.636609
-15742.430251
-15605.967411
-15482.641003
-15605.967411
-15482.641003
-15328.877419
-15213.139135
-15328.877419
-15213.139135
-15074.591000
-14947.774933
-15074.591000
-14947.774933
-14793.965132
-14682.577952
-14793.965132
-14682.577952
-14541.065012
-14421.008091
-14541.065012
-14421.008091
-14263.322089
-14147.547633
-14263.322089
-14147.547633
-14003.959134
-13895.200357
-14003.959134
-13895.200357
-13733.586692
-13616.582550
-13733.586692
-13616.582550
-13473.590414
-13357.814022
-13473.590414
-13357.814022
-13205.650535
-13092.296958
-13205.650535
-13092.296958
-12936.004477
-12817.813147
-12936.004477
-12817.813147
-12666.762025
-12551.856847
-12666.762025
-12551.856847
-12425.521862
-12300.323607
-12425.521862
-12300.323607
-12157.892464
-12020.263850
-12157.892464
-12020.263850
-11888.561808
-11746.234925
-11888.561808
-11746.234925
-11607.362250
-11495.489942
-11607.362250
-11495.489942
-11354.527631
-11235.164548
-11354.527631
-11235.164548
-11075.243383
-10975.222039
-11075.243383
-10975.222039
-10812.752660
-10689.329983
-10812.752660
-10689.329983
-10560.161287
-10426.328565
-10560.161287
-10426.328565
-10298.472488
-10161.954436
-10298.472488
-10161.954436
-10021.171138
-9894.443740
-10021.171138
-9894.443740
-9753.797775
-9642.303297
-9753.797775
-9642.303297
-9485.046835
-9381.297342
-9485.046835
-9381.297342
-9221.309737
-9101.537995
-9221.309737
-9101.537995
-8960.187331
-8830.167489
-8960.187331
-8830.167489
-8695.126937
-8571.505685
-8695.126937
-8571.505685
-8414.559967
-8319.670475
-8414.559967
-8319.670475
-8157.427422
-8045.225377
-8157.427422
-8045.225377
-7890.692416
-7776.863843
-7890.692416
-7776.863843
-7638.780146
-7502.920132
-7638.780146
-7502.920132
-7378.685328
-7231.510529
-7378.685328
-7231.510529
-7107.185766
-6983.182450
-7107.185766
-6983.182450
-6827.220534
-6717.360471
-6827.220534
-6717.360471
-6575.129544
-6434.917557
-6575.129544
-6434.917557
-6317.014259
-6165.965978
-6317.014259
-6165.965978
-6054.911339
-5896.080482
-6054.911339
-5896.080482
-5779.991998
-5645.642080
-5779.991998
-5645.642080
-5501.562241
-5387.593173
-5501.562241
-5387.593173
-5233.330300
-5113.663549
-5233.330300
-5113.663549
-4980.649247
-4845.841713
-4980.649247
-4845.841713
-4726.873545
-4584.729727
-4726.873545
-4584.729727
-4450.679480
-4326.462333
-4450.679480
-4326.462333
-4169.644226
-4074.804418
-4169.644226
-4074.804418
-3889.168598
-3796.168824
-3889.168598
-3796.168824
-3630.786696
-3544.933156
-3630.786696
-3544.933156
-3381.343952
-3254.002394
-3381.343952
-3254.002394
-3115.143575
-2983.428142
-3115.143575
-2983.428142
-2864.713163
-2727.221555
-2864.713163
-2727.221555
-2584.566084
-2453.915518
-2584.566084
-2453.915518
-2321.659556
-2205.090374
-2321.659556
-2205.090374
-2030.508380
-1934.796900
-2030.508380
-1934.796900
-1785.740024
-1683.812423
-1785.740024
-1683.812423
-1514.082950
-1410.467214
-1514.082950
-1410.467214
-1255.335397
-1133.633921
-1255.335397
-1133.633921
-989.217801
-863.318002
-989.217801
-863.318002
-725.766004
-592.282518
-725.766004
-592.282518
-465.061232
-316.499654
-465.061232
-316.499654
-216.098199
-63.837823
-216.098199
-63.837823

SCALARS sigma_zz FLOAT 1
LOOKUP_TABLE default
0.000000
0.000000
0.000000
0.000000
0.000000
0.000000
0.000000
0.000000
0.000000
0.000000
0.000000
0.000000
0.000000
0.000000
0.000000
0.000000
0.000000
0.000000
0.000000
0.000000
0.000000
0.000000
0.000000
0.000000
0.000000
0.000000
0.000000
0.000000
0.000000
0.000000
0.000000
0.000000
0.000000
0.000000
0.000000
0.000000
0.000000
0.000000
0.000000
0.000000
0.000000
0.000000
0.000000
0.000000
0.000000
0.000000
0.000000
0.000000
0.000000
0.000000
0.000000
0.000000
0.000000
0.000000
0.000000
0.000000
0.000000
0.000000
0.000000
0.000000
0.000000
0.000000
0.000000
0.000000
0.000000
0.000000
0.000000
0.000000
0.000000
0.000000
0.000000
0.000000
0.000000
0.000000
0.000000
0.000000
0.000000
0.000000
0.000000
0.000000
0.000000
0.000000
0.000000
0.000000
0.000000
0.000000
0.000000
0.000000
0.000000
0.000000
0.000000
0.000000
0.000000
0.000000
0.000000
0.000000
0.000000
0.000000
0.000000
0.000000
0.000000
0.000000
0.000000
0.000000
0.000000
0.000000
0.000000
0.000000
0.000000
0.000000
0.000000
0.000000
0.000000
0.000000
0.000000
0.000000
0.000000
0.000000
0.000000
0.000000
0.000000
0.000000
0.000000
0.000000
0.000000
0.000000
0.000000
0.000000
0.000000
0.000000
0.000000
0.000000
0.000000
0.000000
0.000000
0.000000
0.000000
0.000000
0.000000
0.000000
0.000000
0.000000
0.000000
0.000000
0.000000
0.000000
0.000000
0.000000
0.000000
0.000000
0.000000
0.000000
0.000000
0.000000
0.000000
0.000000
0.000000
0.000000
0.000000
0.000000
0.000000
0.000000
0.000000
0.000000
0.000000
0.000000
0.000000
0.000000
0.000000
0.000000
0.000000
0.000000
0.000000
0.000000
0.000000
0.000000
0.000000
0.000000
0.000000
0.000000
0.000000
0.000000
0.000000
0.000000
0.000000
0.000000
0.000000
0.000000
0.000000
0.000000
0.000000
0.000000
0.000000
0.000000
0.000000
0.000000
0.000000
0.000000
0.000000
0.000000
0.000000
0.000000
0.000000
0.000000
0.000000
0.000000
0.000000
0.000000
0.000000
0.000000
0.000000
0.000000
0.000000
0.000000
0.000000
0.000000
0.000000
0.000000
0.000000
0.000000
0.000000
0.000000
0.000000
0.000000
0.000000
0.000000
0.000000
0.000000
0.000000
0.000000
0.000000
0.000000
0.000000
0.000000
0.000000
0.000000
0.000000
0.000000
0.000000
0.000000
0.000000
0.000000
0.000000
0.000000
0.000000
0.000000
0.000000
0.000000
0.000000
0.000000
0.000000
0.000000
0.000000
0.000000
0.000000
0.000000

SCALARS sigma_xy FLOAT 1
LOOKUP_TABLE default
0.000000
0.000000
0.000000
0.000000
0.000000
-0.000000
0.000000
-0.000000
0.000000
0.000000
0.000000
0.000000
0.000000
0.000000
0.000000
0.000000
0.000000
0.000000
0.000000
0.000000
-0.000000
-0.000000
-0.000000
-0.000000
0.000000
0.000000
0.000000
0.000000
0.000000
0.000000
0.000000
0.000000
-0.000000
0.000000
-0.000000
0.000000
-0.000000
-0.000000
-0.000000
-0.000000
-0.000000
0.000000
-0.000000
0.000000
0.000000
0.000000
0.000000
-0.000000
-0.000000
0.000000
-0.000000
0.000000
0.000000
0.000000
0.000000
0.000000
0.000000
-0.000000
0.000000
-0.000000
-0.000000
-0.000000
-0.000000
-0.000000
0.000000
0.000000
0.000000
0.000000
0.000000
-0.000000
0.000000
-0.000000
-0.000000
0.000000
-0.000000
0.000000
-0.000000
0.000000
-0.000000
0.000000
-0.000000
-0.000000
-0.000000
-0.000000
0.000000
0.000000
0.000000
0.000000
0.000000
0.000000
0.000000
0.000000
-0.000000
-0.000000
-0.000000
-0.000000
-0.000000
-0.000000
-0.000000
-0.000000
0.000000
0.000000
0.000000
0.000000
0.000000
0.000000
0.000000
0.000000
-0.000000
-0.000000
-0.000000
-0.000000
0.000000
0.000000
0.000000
0.000000
0.000000
-0.000000
0.000000
-0.000000
-0.000000
-0.000000
-0.000000
-0.000000
0.000000
0.000000
0.000000
-0.000000
0.000000
0.000000
0.000000
0.000000
0.000000
0.000000
0.000000
0.000000
0.000000
-0.000000
-0.000000
-0.000000
-0.000000
-0.000000
-0.000000
-0.000000
-0.000000
0.000000
-0.000000
0.000000
0.000000
0.000000
0.000000
0.000000
-0.000000
-0.000000
-0.000000
-0.000000
0.000000
0.000000
0.000000
0.000000
0.000000
0.000000
0.000000
0.000000
-0.000000
0.000000
-0.000000
0.000000
-0.000000
-0.000000
-0.000000
-0.000000
0.000000
0.000000
0.000000
0.000000
-0.000000
-0.000000
-0.000000
-0.000000
-0.000000
0.000000
-0.000000
0.000000
-0.000000
-0.000000
-0.000000
-0.000000
0.000000
0.000000
0.000000
0.000000
0.000000
-0.000000
0.000000
-0.000000
-0.000000
0.000000
-0.000000
0.000000
-0.000000
0.000000
0.000000
0.000000
0.000000
0.000000
0.000000
0.000000
-0.000000
0.000000
-0.000000
0.000000
0.000000
0.000000
0.000000
0.000000
0.000000
0.000000
0.000000
0.000000
-0.000000
-0.000000
-0.000000
-0.000000
0.000000
0.000000
0.000000
0.000000
0.000000
-0.000000
0.000000
-0.000000
-0.000000
-0.000000
-0.000000
0.000000
0.000000
0.000000
0.000000
0.000000
0.000000
0.000000
0.000000
0.000000
-0.000000
-0.000000
-0.000000
-0.000000
0.000000
-0.000000
-0.000000
-0.000000
0.000000
-0.000000
0.000000
-0.000000

SCALARS sigma_yz FLOAT 1
LOOKUP_TABLE default
0.000000
0.000000
0.000000
0.000000
0.000000
0.000000
0.000000
0.000000
0.000000
0.000000
0.000000
0.000000
0.000000
0.000000
0.000000
0.000000
0.000000
0.000000
0.000000
0.000000
0.000000
0.000000
0.000000
0.000000
0.000000
0.000000
0.000000
0.000000
0.000000
0.000000
0.000000
0.000000
0.000000
0.000000
0.000000
0.000000
0.000000
0.000000
0.000000
0.000000
0.000000
0.000000
0.000000
0.000000
0.000000
0.000000
0.000000
0.000000
0.000000
0.000000
0.000000
0.000000
0.000000
0.000000
0.000000
0.000000
0.000000
0.000000
0.000000
0.000000
0.000000
0.000000
0.000000
0.000000
0.000000
0.000000
0.000000
0.000000
0.000000
0.000000
0.000000
0.000000
0.000000
0.000000
0.000000
0.000000
0.000000
0.000000
0.000000
0.000000
0.000000
0.000000
0.000000
0.000000
0.000000
0.000000
0.000000
0.000000
0.000000
0.000000
0.000000
0.000000
0.000000
0.000000
0.000000
0.000000
0.000000
0.000000
0.000000
0.000000
0.000000
0.000000
0.000000
0.000000
0.000000
0.000000
0.000000
0.000000
0.000000
0.000000
0.000000
0.000000
0.000000
0.000000
0.000000
0.000000
0.000000
0.000000
0.000000
0.000000
0.000000
0.000000
0.000000
0.000000
0.000000
0.000000
0.000000
0.000000
0.000000
0.000000
0.000000
0.000000
0.000000
0.000000
0.000000
0.000000
0.000000
0.000000
0.000000
0.000000
0.000000
0.000000
0.000000
0.000000
0.000000
0.000000
0.000000
0.000000
0.000000
0.000000
0.000000
0.000000
0.000000
0.000000
0.000000
0.000000
0.000000
0.000000
0.000000
0.000000
0.000000
0.000000
0.000000
0.000000
0.000000
0.000000
0.000000
0.000000
0.000000
0.000000
0.000000
0.000000
0.000000
0.000000
0.000000
0.000000
0.000000
0.000000
0.000000
0.000000
0.000000
0.000000
0.000000
0.000000
0.000000
0.000000
0.000000
0.000000
0.000000
0.000000
0.000000
0.000000
0.000000
0.000000
0.000000
0.000000
0.000000
0.000000
0.000000
0.000000
0.000000
0.000000
0.000000
0.000000
0.000000
0.000000
0.000000
0.000000
0.000000
0.000000
0.000000
0.000000
0.000000
0.000000
0.000000
0.000000
0.000000
0.000000
0.000000
0.000000
0.000000
0.000000
0.000000
0.000000
0.000000
0.000000
0.000000
0.000000
0.000000
0.000000
0.000000
0.000000
0.000000
0.000000
0.000000
0.000000
0.000000
0.000000
0.000000
0.000000
0.000000
0.000000
0.000000
0.000000
0.000000
0.000000
0.000000
0.000000
0.000000
0.000000
0.000000
0.000000
0.000000
0.000000
0.000000
0.000000

SCALARS sigma_zx FLOAT 1
LOOKUP_TABLE default
0.000000
0.000000
0.000000
0.000000
0.000000
0.000000
0.000000
0.000000
0.000000
0.000000
0.000000
0.000000
0.000000
0.000000
0.000000
0.000000
0.000000
0.000000
0.000000
0.000000
0.000000
0.000000
0.000000
0.000000
0.000000
0.000000
0.000000
0.000000
0.000000
0.000000
0.000000
0.000000
0.000000
0.000000
0.000000
0.000000
0.000000
0.000000
0.000000
0.000000
0.000000
0.000000
0.000000
0.000000
0.000000
0.000000
0.000000
0.000000
0.000000
0.000000
0.000000
0.000000
0.000000
0.000000
0.000000
0.000000
0.000000
0.000000
0.000000
0.000000
0.000000
0.000000
0.000000
0.000000
0.000000
0.000000
0.000000
0.000000
0.000000
0.000000
0.000000
0.000000
0.000000
0.000000
0.000000
0.000000
0.000000
0.000000
0.000000
0.000000
0.000000
0.000000
0.000000
0.000000
0.000000
0.000000
0.000000
0.000000
0.000000
0.000000
0.000000
0.000000
0.000000
0.000000
0.000000
0.000000
0.000000
0.000000
0.000000
0.000000
0.000000
0.000000
0.000000
0.000000
0.000000
0.000000
0.000000
0.000000
0.000000
0.000000
0.000000
0.000000
0.000000
0.000000
0.000000
0.000000
0.000000
0.000000
0.000000
0.000000
0.000000
0.000000
0.000000
0.000000
0.000000
0.000000
0.000000
0.000000
0.000000
0.000000
0.000000
0.000000
0.000000
0.000000
0.000000
0.000000
0.000000
0.000000
0.000000
0.000000
0.000000
0.000000
0.000000
0.000000
0.000000
0.000000
0.000000
0.000000
0.000000
0.000000
0.000000
0.000000
0.000000
0.000000
0.000000
0.000000
0.000000
0.000000
0.000000
0.000000
0.000000
0.000000
0.000000
0.000000
0.000000
0.000000
0.000000
0.000000
0.000000
0.000000
0.000000
0.000000
0.000000
0.000000
0.000000
0.000000
0.000000
0.000000
0.000000
0.000000
0.000000
0.000000
0.000000
0.000000
0.000000
0.000000
0.000000
0.000000
0.000000
0.000000
0.000000
0.000000
0.000000
0.000000
0.000000
0.000000
0.000000
0.000000
0.000000
0.000000
0.000000
0.000000
0.000000
0.000000
0.000000
0.000000
0.000000
0.000000
0.000000
0.000000
0.000000
0.000000
0.000000
0.000000
0.000000
0.000000
0.000000
0.000000
0.000000
0.000000
0.000000
0.000000
0.000000
0.000000
0.000000
0.000000
0.000000
0.000000
0.000000
0.000000
0.000000
0.000000
0.000000
0.000000
0.000000
0.000000
0.000000
0.000000
0.000000
0.000000
0.000000
0.000000
0.000000
0.000000
0.000000
0.000000
0.000000
0.000000
0.000000
0.000000
0.000000
0.000000
0.000000
0.000000
0.000000
0.000000

SCALARS u_x FLOAT 1
LOOKUP_TABLE default
0.000000
0.000000
0.000000
0.000000
0.000000
0.000000
0.000000
0.000000
0.000000
0.000000
0.000000
0.000000
0.000000
0.000000
0.000000
0.000000
0.000000
0.000000
0.000000
0.000000
0.000000
0.000000
0.000000
0.000000
0.000000
0.000000
0.000000
0.000000
0.000000
0.000000
0.000000
0.000000
0.000000
0.000000
0.000000
0.000000
0.000000
0.000000
0.000000
0.000000
0.000000
0.000000
0.000000
0.000000
0.000000
0.000000
0.000000
0.000000
0.000000
0.000000
0.000000
0.000000
0.000000
0.000000
0.000000
0.000000
0.000000
0.000000
0.000000
0.000000
0.000000
0.000000
0.000000
0.000000
0.000000
0.000000
0.000000
0.000000
0.000000
0.000000
0.000000
0.000000
0.000000
0.000000
0.000000
0.000000
0.000000
0.000000
0.000000
0.000000
0.000000
0.000000
0.000000
0.000000
0.000000
0.000000
0.000000
0.000000
0.000000
0.000000
0.000000
0.000000
0.000000
0.000000
0.000000
0.000000
0.000000
0.000000
0.000000
0.000000
0.000000
0.000000
0.000000
0.000000
0.000000
0.000000
0.000000
0.000000
0.000000
0.000000
0.000000
0.000000
0.000000
0.000000
0.000000
0.000000
0.000000
0.000000
0.000000
0.000000
0.000000
0.000000
0.000000
0.000000
0.000000
0.000000
0.000000
0.000000
0.000000
0.000000
0.000000
0.000000
0.000000
0.000000
0.000000
0.000000
0.000000
0.000000
0.000000
0.000000
0.000000
0.000000
0.000000
0.000000
0.000000
0.000000
0.000000
0.000000
0.000000
0.000000
0.000000
0.000000
0.000000
0.000000
0.000000
0.000000
0.000000
0.000000
0.000000
0.000000
0.000000
0.000000
0.000000
0.000000
0.000000
0.000000
0.000000
0.000000
0.000000
0.000000
0.000000
0.000000
0.000000
0.000000
0.000000
0.000000
0.000000
0.000000
0.000000
0.000000
0.000000
0.000000
0.000000
0.000000
0.000000
0.000000
0.000000
0.000000
0.000000
0.000000
0.000000
0.000000
0.000000
0.000000
0.000000
0.000000
0.000000
0.000000
0.000000
0.000000
0.000000
0.000000
0.000000
0.000000
0.000000
0.000000
0.000000
0.000000
0.000000
0.000000
0.000000
0.000000
0.000000
0.000000
0.000000
0.000000
0.000000
0.000000
0.000000
0.000000
0.000000
0.000000
0.000000
0.000000
0.000000
0.000000
0.000000
0.000000
0.000000
0.000000
0.000000
0.000000
0.000000
0.000000
0.000000
0.000000
0.000000
0.000000
0.000000
0.000000
0.000000
0.000000
0.000000
0.000000
0.000000
0.000000
0.000000
0.000000
0.000000
0.000000
0.000000
0.000000
0.000000
0.000000
0.000000
0.000000

SCALARS u_y FLOAT 1
LOOKUP_TABLE default
-0.105391
-0.316174
-0.105391
-0.316174
-0.526709
-0.736427
-0.526709
-0.736427
-0.945380
-1.153684
-0.945380
-1.153684
-1.361449
-1.568554
-1.361449
-1.568554
-1.774965
-1.980670
-1.774965
-1.980670
-2.185769
-2.390186
-2.185769
-2.390186
-2.593912
-2.796911
-2.593912
-2.796911
-2.999281
-3.200943
-2.999281
-3.200943
-3.401866
-3.602060
-3.401866
-3.602060
-3.801572
-4.000372
-3.801572
-4.000372
-4.198379
-4.395642
-4.198379
-4.395642
-4.592172
-4.788001
-4.592172
-4.788001
-4.983010
-5.177231
-4.983010
-5.177231
-5.370664
-5.563400
-5.370664
-5.563400
-5.755262
-5.946328
-5.755262
-5.946328
-6.136604
-6.326024
-6.136604
-6.326024
-6.514562
-6.702235
-6.514562
-6.702235
-6.889253
-7.075341
-6.889253
-7.075341
-7.260601
-7.444910
-7.260601
-7.444910
-7.628360
-7.810868
-7.628360
-7.810868
-7.992343
-8.173112
-7.992343
-8.173112
-8.352814
-8.531738
-8.352814
-8.531738
-8.709566
-8.886525
-8.709566
-8.886525
-9.062479
-9.237367
-9.062479
-9.237367
-9.411345
-9.584227
-9.411345
-9.584227
-9.756222
-9.927131
-9.756222
-9.927131
-10.096903
-10.265735
-10.096903
-10.265735
-10.433273
-10.599945
-10.433273
-10.599945
-10.765437
-10.929865
-10.765437
-10.929865
-11.093182
-11.255240
-11.093182
-11.255240
-11.416210
-11.575877
-11.416210
-11.575877
-11.734483
-11.891838
-11.734483
-11.891838
-12.047821
-12.202763
-12.047821
-12.202763
-12.356333
-12.508708
-12.356333
-12.508708
-12.659810
-12.809366
-12.659810
-12.809366
-12.957889
-13.104790
-12.957889
-13.104790
-13.250506
-13.394728
-13.250506
-13.394728
-13.537459
-13.678895
-13.537459
-13.678895
-13.818747
-13.957117
-13.818747
-13.957117
-14.094127
-14.229338
-14.094127
-14.229338
-14.363172
-14.495224
-14.363172
-14.495224
-14.625836
-14.754774
-14.625836
-14.754774
-14.881778
-15.007496
-14.881778
-15.007496
-15.131061
-15.253196
-15.131061
-15.253196
-15.373310
-15.491661
-15.373310
-15.491661
-15.608113
-15.722679
-15.608113
-15.722679
-15.835363
-15.946215
-15.835363
-15.946215
-16.054809
-16.161648
-16.054809
-16.161648
-16.265933
-16.368558
-16.265933
-16.368558
-16.468491
-16.566392
-16.468491
-16.566392
-16.661901
-16.755247
-16.661901
-16.755247
-16.846416
-16.934694
-16.846416
-16.934694
-17.020739
-17.103863
-17.020739
-17.103863
-17.184854
-17.263151
-17.184854
-17.263151
-17.338429
-17.411013
-17.338429
-17.411013
-17.480508
-17.547419
-17.480508
-17.547419
-17.610801
-17.671079
-17.610801
-17.671079
-17.728414
-17.782570
-17.728414
-17.782570
-17.833419
-17.880366
-17.833419
-17.880366
-17.924213
-17.963679
-17.924213
-17.963679
-17.999818
-18.031386
-17.999818
-18.031386
-18.059451
-18.082607
-18.059451
-18.082607
-18.102072
-18.116048
-18.102072
-18.116048
-18.126396
-18.132773
-18.126396
-18.132773

