# vtk DataFile Version 2.0
MATLAB generated vtk file, WMC
ASCII
DATASET UNSTRUCTURED_GRID
POINTS 256 double
0.195312 0.092310 0.000000 
0.195312 0.276931 0.000000 
0.585938 0.092310 0.000000 
0.585938 0.276931 0.000000 
0.195312 0.461805 0.000000 
0.195312 0.647519 0.000000 
0.585938 0.461805 0.000000 
0.585938 0.647519 0.000000 
0.195312 0.833999 0.000000 
0.195312 1.021104 0.000000 
0.585938 0.833999 0.000000 
0.585938 1.021104 0.000000 
0.195312 1.208759 0.000000 
0.195312 1.397092 0.000000 
0.585938 1.208759 0.000000 
0.585938 1.397092 0.000000 
0.195312 1.586127 0.000000 
0.195312 1.775846 0.000000 
0.585938 1.586127 0.000000 
0.585938 1.775846 0.000000 
0.195312 1.966183 0.000000 
0.195312 2.157218 0.000000 
0.585938 1.966183 0.000000 
0.585938 2.157218 0.000000 
0.195312 2.348957 0.000000 
0.195312 2.541401 0.000000 
0.585938 2.348957 0.000000 
0.585938 2.541401 0.000000 
0.195312 2.734485 0.000000 
0.195312 2.928296 0.000000 
0.585938 2.734485 0.000000 
0.585938 2.928296 0.000000 
0.195312 3.122856 0.000000 
0.195312 3.318119 0.000000 
0.585938 3.122856 0.000000 
0.585938 3.318119 0.000000 
0.195312 3.514073 0.000000 
0.195312 3.710758 0.000000 
0.585938 3.514073 0.000000 
0.585938 3.710758 0.000000 
0.195312 3.908243 0.000000 
0.195312 4.106417 0.000000 
0.585938 3.908243 0.000000 
0.585938 4.106417 0.000000 
0.195312 4.305330 0.000000 
0.195312 4.504962 0.000000 
0.585938 4.305330 0.000000 
0.585938 4.504962 0.000000 
0.195312 4.705424 0.000000 
0.195312 4.906651 0.000000 
0.585938 4.705424 0.000000 
0.585938 4.906651 0.000000 
0.195312 5.108679 0.000000 
0.195312 5.311423 0.000000 
0.585938 5.108679 0.000000 
0.585938 5.311423 0.000000 
0.195312 5.515047 0.000000 
0.195312 5.719449 0.000000 
0.585938 5.515047 0.000000 
0.585938 5.719449 0.000000 
0.195312 5.924658 0.000000 
0.195312 6.130744 0.000000 
0.585938 5.924658 0.000000 
0.585938 6.130744 0.000000 
0.195312 6.337710 0.000000 
0.195312 6.545532 0.000000 
0.585938 6.337710 0.000000 
0.585938 6.545532 0.000000 
0.195312 6.754025 0.000000 
0.195312 6.963468 0.000000 
0.585938 6.754025 0.000000 
0.585938 6.963468 0.000000 
0.195312 7.173709 0.000000 
0.195312 7.384897 0.000000 
0.585938 7.173709 0.000000 
0.585938 7.384897 0.000000 
0.195312 7.596964 0.000000 
0.195312 7.809983 0.000000 
0.585938 7.596964 0.000000 
0.585938 7.809983 0.000000 
0.195312 8.023974 0.000000 
0.195312 8.238674 0.000000 
0.585938 8.023974 0.000000 
0.585938 8.238674 0.000000 
0.195312 8.454465 0.000000 
0.195312 8.671039 0.000000 
0.585938 8.454465 0.000000 
0.585938 8.671039 0.000000 
0.195312 8.888711 0.000000 
0.195312 9.107271 0.000000 
0.585938 8.888711 0.000000 
0.585938 9.107271 0.000000 
0.195312 9.326855 0.000000 
0.195312 9.547449 0.000000 
0.585938 9.326855 0.000000 
0.585938 9.547449 0.000000 
0.195312 9.768945 0.000000 
0.195312 9.991561 0.000000 
0.585938 9.768945 0.000000 
0.585938 9.991561 0.000000 
0.195312 10.215054 0.000000 
0.195312 10.439587 0.000000 
0.585938 10.215054 0.000000 
0.585938 10.439587 0.000000 
0.195312 10.665280 0.000000 
0.195312 10.891931 0.000000 
0.585938 10.665280 0.000000 
0.585938 10.891931 0.000000 
0.195312 11.119886 0.000000 
0.195312 11.348721 0.000000 
0.585938 11.119886 0.000000 
0.585938 11.348721 0.000000 
0.195312 11.578761 0.000000 
0.195312 11.809815 0.000000 
0.585938 11.578761 0.000000 
0.585938 11.809815 0.000000 
0.195312 12.041895 0.000000 
0.195312 12.275259 0.000000 
0.585938 12.041895 0.000000 
0.585938 12.275259 0.000000 
0.195312 12.509720 0.000000 
0.195312 12.745437 0.000000 
0.585938 12.509720 0.000000 
0.585938 12.745437 0.000000 
0.195312 12.982228 0.000000 
0.195312 13.220291 0.000000 
0.585938 12.982228 0.000000 
0.585938 13.220291 0.000000 
0.195312 13.459697 0.000000 
0.195312 13.700140 0.000000 
0.585938 13.459697 0.000000 
0.585938 13.700140 0.000000 
0.195312 13.941981 0.000000 
0.195312 14.185000 0.000000 
0.585938 13.941981 0.000000 
0.585938 14.185000 0.000000 
0.195312 14.429274 0.000000 
0.195312 14.675126 0.000000 
0.585938 14.429274 0.000000 
0.585938 14.675126 0.000000 
0.195312 14.921986 0.000000 
0.195312 15.170414 0.000000 
0.585938 14.921986 0.000000 
0.585938 15.170414 0.000000 
0.195312 15.420047 0.000000 
0.195312 15.671175 0.000000 
0.585938 15.420047 0.000000 
0.585938 15.671175 0.000000 
0.195312 15.923737 0.000000 
0.195312 16.177613 0.000000 
0.585938 15.923737 0.000000 
0.585938 16.177613 0.000000 
0.195312 16.433080 0.000000 
0.195312 16.689961 0.000000 
0.585938 16.433080 0.000000 
0.585938 16.689961 0.000000 
0.195312 16.948218 0.000000 
0.195312 17.208272 0.000000 
0.585938 16.948218 0.000000 
0.585938 17.208272 0.000000 
0.195312 17.469585 0.000000 
0.195312 17.732694 0.000000 
0.585938 17.469585 0.000000 
0.585938 17.732694 0.000000 
0.195312 17.997229 0.000000 
0.195312 18.263314 0.000000 
0.585938 17.997229 0.000000 
0.585938 18.263314 0.000000 
0.195312 18.531349 0.000000 
0.195312 18.800667 0.000000 
0.585938 18.531349 0.000000 
0.585938 18.800667 0.000000 
0.195312 19.072101 0.000000 
0.195312 19.344982 0.000000 
0.585938 19.072101 0.000000 
0.585938 19.344982 0.000000 
0.195312 19.619862 0.000000 
0.195312 19.896421 0.000000 
0.585938 19.619862 0.000000 
0.585938 19.896421 0.000000 
0.195312 20.174908 0.000000 
0.195312 20.455289 0.000000 
0.585938 20.174908 0.000000 
0.585938 20.455289 0.000000 
0.195312 20.737564 0.000000 
0.195312 21.021687 0.000000 
0.585938 20.737564 0.000000 
0.585938 21.021687 0.000000 
0.195312 21.307863 0.000000 
0.195312 21.595719 0.000000 
0.585938 21.307863 0.000000 
0.585938 21.595719 0.000000 
0.195312 21.886159 0.000000 
0.195312 22.178238 0.000000 
0.585938 21.886159 0.000000 
0.585938 22.178238 0.000000 
0.195312 22.473041 0.000000 
0.195312 22.769734 0.000000 
0.585938 22.473041 0.000000 
0.585938 22.769734 0.000000 
0.195312 23.068587 0.000000 
0.195312 23.369624 0.000000 
0.585938 23.068587 0.000000 
0.585938 23.369624 0.000000 
0.195312 23.672785 0.000000 
0.195312 23.978841 0.000000 
0.585938 23.672785 0.000000 
0.585938 23.978841 0.000000 
0.195312 24.287070 0.000000 
0.195312 24.598012 0.000000 
0.585938 24.287070 0.000000 
0.585938 24.598012 0.000000 
0.195312 24.911098 0.000000 
0.195312 25.226888 0.000000 
0.585938 24.911098 0.000000 
0.585938 25.226888 0.000000 
0.195312 25.545720 0.000000 
0.195312 25.867120 0.000000 
0.585938 25.545720 0.000000 
0.585938 25.867120 0.000000 
0.195312 26.191279 0.000000 
0.195312 26.517994 0.000000 
0.585938 26.191279 0.000000 
0.585938 26.517994 0.000000 
0.195312 26.847871 0.000000 
0.195312 27.180764 0.000000 
0.585938 26.847871 0.000000 
0.585938 27.180764 0.000000 
0.195312 27.516758 0.000000 
0.195312 27.856082 0.000000 
0.585938 27.516758 0.000000 
0.585938 27.856082 0.000000 
0.195312 28.198598 0.000000 
0.195312 28.544647 0.000000 
0.585938 28.198598 0.000000 
0.585938 28.544647 0.000000 
0.195312 28.893728 0.000000 
0.195312 29.246759 0.000000 
0.585938 28.893728 0.000000 
0.585938 29.246759 0.000000 
0.195312 29.603028 0.000000 
0.195312 29.963577 0.000000 
0.585938 29.603028 0.000000 
0.585938 29.963577 0.000000 
0.195312 30.327516 0.000000 
0.195312 30.696092 0.000000 
0.585938 30.327516 0.000000 
0.585938 30.696092 0.000000 
0.195312 31.068181 0.000000 
0.195312 31.445404 0.000000 
0.585938 31.068181 0.000000 
0.585938 31.445404 0.000000 
0.195312 31.825916 0.000000 
0.195312 32.210984 0.000000 
0.585938 31.825916 0.000000 
0.585938 32.210984 0.000000 

POINT_DATA 256
SCALARS sigma_xx FLOAT 1
LOOKUP_TABLE default
0.000000
0.000000
0.000000
0.000000
0.000000
-0.000000
0.000000
-0.000000
0.000000
0.000000
0.000000
0.000000
0.000000
0.000000
0.000000
0.000000
0.000000
-0.000000
0.000000
-0.000000
-0.000000
0.000000
-0.000000
0.000000
-0.000000
-0.000000
-0.000000
-0.000000
-0.000000
-0.000000
-0.000000
-0.000000
-0.000000
-0.000000
-0.000000
-0.000000
-0.000000
-0.000000
-0.000000
-0.000000
0.000000
-0.000000
0.000000
-0.000000
-0.000000
0.000000
-0.000000
-0.000000
-0.000000
0.000000
-0.000000
0.000000
-0.000000
-0.000000
-0.000000
-0.000000
-0.000000
-0.000000
-0.000000
-0.000000
-0.000000
-0.000000
-0.000000
-0.000000
0.000000
-0.000000
0.000000
-0.000000
-0.000000
-0.000000
-0.000000
-0.000000
-0.000000
-0.000000
-0.000000
-0.000000
-0.000000
-0.000000
-0.000000
-0.000000
-0.000000
-0.000000
-0.000000
-0.000000
-0.000000
-0.000000
-0.000000
-0.000000
-0.000000
-0.000000
-0.000000
-0.000000
-0.000000
-0.000000
-0.000000
-0.000000
-0.000000
-0.000000
-0.000000
-0.000000
-0.000000
-0.000000
-0.000000
-0.000000
-0.000000
0.000000
-0.000000
-0.000000
-0.000000
0.000000
-0.000000
0.000000
-0.000000
-0.000000
-0.000000
-0.000000
-0.000000
0.000000
-0.000000
0.000000
-0.000000
-0.000000
-0.000000
-0.000000
0.000000
0.000000
0.000000
-0.000000
-0.000000
-0.000000
-0.000000
-0.000000
-0.000000
-0.000000
-0.000000
0.000000
0.000000
-0.000000
-0.000000
-0.000000
0.000000
-0.000000
0.000000
-0.000000
-0.000000
-0.000000
-0.000000
-0.000000
-0.000000
-0.000000
-0.000000
-0.000000
-0.000000
-0.000000
-0.000000
-0.000000
0.000000
0.000000
0.000000
0.000000
-0.000000
0.000000
0.000000
0.000000
-0.000000
0.000000
-0.000000
-0.000000
-0.000000
-0.000000
-0.000000
-0.000000
0.000000
-0.000000
-0.000000
-0.000000
0.000000
-0.000000
-0.000000
-0.000000
-0.000000
-0.000000
-0.000000
-0.000000
-0.000000
-0.000000
-0.000000
-0.000000
-0.000000
-0.000000
-0.000000
-0.000000
-0.000000
-0.000000
-0.000000
-0.000000
-0.000000
-0.000000
-0.000000
-0.000000
-0.000000
-0.000000
-0.000000
-0.000000
-0.000000
-0.000000
0.000000
-0.000000
-0.000000
-0.000000
-0.000000
-0.000000
-0.000000
-0.000000
-0.000000
-0.000000
-0.000000
-0.000000
-0.000000
-0.000000
-0.000000
-0.000000
-0.000000
-0.000000
0.000000
-0.000000
0.000000
-0.000000
0.000000
-0.000000
0.000000
-0.000000
-0.000000
-0.000000
-0.000000
0.000000
-0.000000
-0.000000
-0.000000
-0.000000
0.000000
-0.000000
-0.000000
-0.000000
-0.000000
-0.000000
-0.000000
-0.000000
0.000000
-0.000000
-0.000000
-0.000000
-0.000000
-0.000000
-0.000000
-0.000000

SCALARS sigma_yy FLOAT 1
LOOKUP_TABLE default
-15856.997039
-15856.997039
-15856.997039
-15856.997039
-15722.839010
-15567.912629
-15722.839010
-15567.912629
-15413.564043
-15324.782871
-15413.564043
-15324.782871
-15190.468080
-15071.986809
-15190.468080
-15071.986809
-14925.984276
-14818.243771
-14925.984276
-14818.243771
-14687.181810
-14568.739965
-14687.181810
-14568.739965
-14426.055846
-14319.333178
-14426.055846
-14319.333178
-14186.227733
-14064.397365
-14186.227733
-14064.397365
-13921.779823
-13820.098109
-13921.779823
-13820.098109
-13684.094992
-13568.716237
-13684.094992
-13568.716237
-13425.559250
-13322.265417
-13425.559250
-13322.265417
-13184.176960
-13079.587441
-13184.176960
-13079.587441
-12929.686087
-12820.965850
-12929.686087
-12820.965850
-12683.406012
-12572.031753
-12683.406012
-12572.031753
-12431.734798
-12324.935507
-12431.734798
-12324.935507
-12174.537805
-12060.808440
-12174.537805
-12060.808440
-11922.766119
-11812.771216
-11922.766119
-11812.771216
-11691.168207
-11572.648581
-11691.168207
-11572.648581
-11444.714988
-11312.176664
-11444.714988
-11312.176664
-11185.350600
-11055.766057
-11185.350600
-11055.766057
-10929.761989
-10821.952933
-10929.761989
-10821.952933
-10686.115483
-10575.265637
-10686.115483
-10575.265637
-10421.829114
-10325.428957
-10421.829114
-10325.428957
-10172.887990
-10064.166174
-10172.887990
-10064.166174
-9939.584494
-9810.509716
-9939.584494
-9810.509716
-9696.715082
-9567.924601
-9696.715082
-9567.924601
-9432.061082
-9310.650565
-9432.061082
-9310.650565
-9176.972014
-9069.367889
-9176.972014
-9069.367889
-8917.605381
-8835.666846
-8917.605381
-8835.666846
-8683.247657
-8567.524329
-8683.247657
-8567.524329
-8436.596375
-8315.674072
-8436.596375
-8315.674072
-8185.125688
-8067.782759
-8185.125688
-8067.782759
-7922.656101
-7830.880577
-7922.656101
-7830.880577
-7673.995195
-7573.723513
-7673.995195
-7573.723513
-7424.195797
-7314.059587
-7424.195797
-7314.059587
-7190.550978
-7061.267981
-7190.550978
-7061.267981
-6940.971813
-6805.638103
-6940.971813
-6805.638103
-6688.493860
-6568.344666
-6688.493860
-6568.344666
-6423.775909
-6321.525973
-6423.775909
-6321.525973
-6183.620570
-6056.794364
-6183.620570
-6056.794364
-5948.953359
-5802.335548
-5948.953359
-5802.335548
-5704.248271
-5556.159990
-5704.248271
-5556.159990
-5443.343681
-5317.963316
-5443.343681
-5317.963316
-5180.221858
-5069.410761
-5180.221858
-5069.410761
-4929.076147
-4814.713761
-4929.076147
-4814.713761
-4685.288960
-4556.684270
-4685.288960
-4556.684270
-4440.893992
-4308.011812
-4440.893992
-4308.011812
-4193.889102
-4072.751164
-4193.889102
-4072.751164
-3921.712734
-3830.817041
-3921.712734
-3830.817041
-3649.752743
-3580.651231
-3649.752743
-3580.651231
-3421.843029
-3339.594781
-3421.843029
-3339.594781
-3184.013522
-3059.436426
-3184.013522
-3059.436426
-2936.010226
-2811.723133
-2936.010226
-2811.723133
-2695.690089
-2562.062003
-2695.690089
-2562.062003
-2422.243209
-2312.404124
-2422.243209
-2312.404124
-2187.963250
-2081.860560
-2187.963250
-2081.860560
-1924.541732
-1830.061041
-1924.541732
-1830.061041
-1673.020663
-1572.694209
-1673.020663
-1572.694209
-1420.588359
-1324.300534
-1420.588359
-1324.300534
-1181.121104
-1072.088447
-1181.121104
-1072.088447
-933.002326
-818.978718
-933.002326
-818.978718
-684.133432
-564.442497
-684.133432
-564.442497
-438.138652
-309.928298
-438.138652
-309.928298
-209.649447
-26.176036
-209.649447
-26.176036

SCALARS sigma_zz FLOAT 1
LOOKUP_TABLE default
0.000000
0.000000
0.000000
0.000000
0.000000
0.000000
0.000000
0.000000
0.000000
0.000000
0.000000
0.000000
0.000000
0.000000
0.000000
0.000000
0.000000
0.000000
0.000000
0.000000
0.000000
0.000000
0.000000
0.000000
0.000000
0.000000
0.000000
0.000000
0.000000
0.000000
0.000000
0.000000
0.000000
0.000000
0.000000
0.000000
0.000000
0.000000
0.000000
0.000000
0.000000
0.000000
0.000000
0.000000
0.000000
0.000000
0.000000
0.000000
0.000000
0.000000
0.000000
0.000000
0.000000
0.000000
0.000000
0.000000
0.000000
0.000000
0.000000
0.000000
0.000000
0.000000
0.000000
0.000000
0.000000
0.000000
0.000000
0.000000
0.000000
0.000000
0.000000
0.000000
0.000000
0.000000
0.000000
0.000000
0.000000
0.000000
0.000000
0.000000
0.000000
0.000000
0.000000
0.000000
0.000000
0.000000
0.000000
0.000000
0.000000
0.000000
0.000000
0.000000
0.000000
0.000000
0.000000
0.000000
0.000000
0.000000
0.000000
0.000000
0.000000
0.000000
0.000000
0.000000
0.000000
0.000000
0.000000
0.000000
0.000000
0.000000
0.000000
0.000000
0.000000
0.000000
0.000000
0.000000
0.000000
0.000000
0.000000
0.000000
0.000000
0.000000
0.000000
0.000000
0.000000
0.000000
0.000000
0.000000
0.000000
0.000000
0.000000
0.000000
0.000000
0.000000
0.000000
0.000000
0.000000
0.000000
0.000000
0.000000
0.000000
0.000000
0.000000
0.000000
0.000000
0.000000
0.000000
0.000000
0.000000
0.000000
0.000000
0.000000
0.000000
0.000000
0.000000
0.000000
0.000000
0.000000
0.000000
0.000000
0.000000
0.000000
0.000000
0.000000
0.000000
0.000000
0.000000
0.000000
0.000000
0.000000
0.000000
0.000000
0.000000
0.000000
0.000000
0.000000
0.000000
0.000000
0.000000
0.000000
0.000000
0.000000
0.000000
0.000000
0.000000
0.000000
0.000000
0.000000
0.000000
0.000000
0.000000
0.000000
0.000000
0.000000
0.000000
0.000000
0.000000
0.000000
0.000000
0.000000
0.000000
0.000000
0.000000
0.000000
0.000000
0.000000
0.000000
0.000000
0.000000
0.000000
0.000000
0.000000
0.000000
0.000000
0.000000
0.000000
0.000000
0.000000
0.000000
0.000000
0.000000
0.000000
0.000000
0.000000
0.000000
0.000000
0.000000
0.000000
0.000000
0.000000
0.000000
0.000000
0.000000
0.000000
0.000000
0.000000
0.000000
0.000000
0.000000
0.000000
0.000000
0.000000
0.000000
0.000000
0.000000
0.000000
0.000000
0.000000
0.000000
0.000000
0.000000
0.000000
0.000000
0.000000
0.000000
0.000000

SCALARS sigma_xy FLOAT 1
LOOKUP_TABLE default
0.000000
0.000000
0.000000
0.000000
0.000000
-0.000000
0.000000
-0.000000
0.000000
0.000000
0.000000
0.000000
0.000000
0.000000
0.000000
0.000000
0.000000
-0.000000
0.000000
-0.000000
-0.000000
0.000000
-0.000000
0.000000
0.000000
0.000000
0.000000
0.000000
0.000000
0.000000
0.000000
0.000000
-0.000000
-0.000000
-0.000000
-0.000000
-0.000000
-0.000000
-0.000000
-0.000000
0.000000
0.000000
0.000000
0.000000
0.000000
0.000000
0.000000
-0.000000
-0.000000
0.000000
-0.000000
0.000000
0.000000
0.000000
0.000000
0.000000
0.000000
-0.000000
0.000000
-0.000000
-0.000000
-0.000000
-0.000000
-0.000000
0.000000
0.000000
0.000000
0.000000
0.000000
0.000000
0.000000
0.000000
0.000000
0.000000
0.000000
0.000000
-0.000000
-0.000000
-0.000000
-0.000000
-0.000000
-0.000000
-0.000000
-0.000000
0.000000
0.000000
0.000000
0.000000
0.000000
0.000000
0.000000
0.000000
-0.000000
-0.000000
-0.000000
-0.000000
-0.000000
-0.000000
-0.000000
-0.000000
0.000000
0.000000
0.000000
0.000000
0.000000
0.000000
0.000000
-0.000000
-0.000000
0.000000
-0.000000
0.000000
0.000000
0.000000
0.000000
0.000000
0.000000
0.000000
0.000000
0.000000
-0.000000
-0.000000
-0.000000
-0.000000
0.000000
0.000000
0.000000
-0.000000
-0.000000
-0.000000
-0.000000
-0.000000
0.000000
-0.000000
0.000000
0.000000
0.000000
-0.000000
-0.000000
-0.000000
0.000000
-0.000000
0.000000
-0.000000
-0.000000
0.000000
-0.000000
0.000000
0.000000
0.000000
0.000000
0.000000
-0.000000
-0.000000
-0.000000
-0.000000
0.000000
0.000000
0.000000
0.000000
0.000000
0.000000
0.000000
0.000000
-0.000000
0.000000
-0.000000
0.000000
-0.000000
-0.000000
-0.000000
-0.000000
0.000000
0.000000
-0.000000
0.000000
0.000000
-0.000000
-0.000000
-0.000000
-0.000000
0.000000
-0.000000
0.000000
0.000000
0.000000
0.000000
0.000000
0.000000
0.000000
0.000000
0.000000
-0.000000
-0.000000
-0.000000
-0.000000
-0.000000
0.000000
-0.000000
0.000000
-0.000000
-0.000000
0.000000
-0.000000
0.000000
0.000000
0.000000
0.000000
0.000000
0.000000
0.000000
0.000000
-0.000000
-0.000000
-0.000000
0.000000
0.000000
0.000000
0.000000
0.000000
-0.000000
-0.000000
-0.000000
-0.000000
0.000000
0.000000
0.000000
0.000000
0.000000
-0.000000
0.000000
-0.000000
-0.000000
-0.000000
-0.000000
0.000000
0.000000
0.000000
0.000000
0.000000
0.000000
0.000000
0.000000
0.000000
-0.000000
-0.000000
-0.000000
-0.000000
0.000000
-0.000000
-0.000000
-0.000000
-0.000000
-0.000000
-0.000000
-0.000000

SCALARS sigma_yz FLOAT 1
LOOKUP_TABLE default
0.000000
0.000000
0.000000
0.000000
0.000000
0.000000
0.000000
0.000000
0.000000
0.000000
0.000000
0.000000
0.000000
0.000000
0.000000
0.000000
0.000000
0.000000
0.000000
0.000000
0.000000
0.000000
0.000000
0.000000
0.000000
0.000000
0.000000
0.000000
0.000000
0.000000
0.000000
0.000000
0.000000
0.000000
0.000000
0.000000
0.000000
0.000000
0.000000
0.000000
0.000000
0.000000
0.000000
0.000000
0.000000
0.000000
0.000000
0.000000
0.000000
0.000000
0.000000
0.000000
0.000000
0.000000
0.000000
0.000000
0.000000
0.000000
0.000000
0.000000
0.000000
0.000000
0.000000
0.000000
0.000000
0.000000
0.000000
0.000000
0.000000
0.000000
0.000000
0.000000
0.000000
0.000000
0.000000
0.000000
0.000000
0.000000
0.000000
0.000000
0.000000
0.000000
0.000000
0.000000
0.000000
0.000000
0.000000
0.000000
0.000000
0.000000
0.000000
0.000000
0.000000
0.000000
0.000000
0.000000
0.000000
0.000000
0.000000
0.000000
0.000000
0.000000
0.000000
0.000000
0.000000
0.000000
0.000000
0.000000
0.000000
0.000000
0.000000
0.000000
0.000000
0.000000
0.000000
0.000000
0.000000
0.000000
0.000000
0.000000
0.000000
0.000000
0.000000
0.000000
0.000000
0.000000
0.000000
0.000000
0.000000
0.000000
0.000000
0.000000
0.000000
0.000000
0.000000
0.000000
0.000000
0.000000
0.000000
0.000000
0.000000
0.000000
0.000000
0.000000
0.000000
0.000000
0.000000
0.000000
0.000000
0.000000
0.000000
0.000000
0.000000
0.000000
0.000000
0.000000
0.000000
0.000000
0.000000
0.000000
0.000000
0.000000
0.000000
0.000000
0.000000
0.000000
0.000000
0.000000
0.000000
0.000000
0.000000
0.000000
0.000000
0.000000
0.000000
0.000000
0.000000
0.000000
0.000000
0.000000
0.000000
0.000000
0.000000
0.000000
0.000000
0.000000
0.000000
0.000000
0.000000
0.000000
0.000000
0.000000
0.000000
0.000000
0.000000
0.000000
0.000000
0.000000
0.000000
0.000000
0.000000
0.000000
0.000000
0.000000
0.000000
0.000000
0.000000
0.000000
0.000000
0.000000
0.000000
0.000000
0.000000
0.000000
0.000000
0.000000
0.000000
0.000000
0.000000
0.000000
0.000000
0.000000
0.000000
0.000000
0.000000
0.000000
0.000000
0.000000
0.000000
0.000000
0.000000
0.000000
0.000000
0.000000
0.000000
0.000000
0.000000
0.000000
0.000000
0.000000
0.000000
0.000000
0.000000
0.000000
0.000000
0.000000
0.000000
0.000000
0.000000
0.000000
0.000000
0.000000
0.000000
0.000000
0.000000
0.000000

SCALARS sigma_zx FLOAT 1
LOOKUP_TABLE default
0.000000
0.000000
0.000000
0.000000
0.000000
0.000000
0.000000
0.000000
0.000000
0.000000
0.000000
0.000000
0.000000
0.000000
0.000000
0.000000
0.000000
0.000000
0.000000
0.000000
0.000000
0.000000
0.000000
0.000000
0.000000
0.000000
0.000000
0.000000
0.000000
0.000000
0.000000
0.000000
0.000000
0.000000
0.000000
0.000000
0.000000
0.000000
0.000000
0.000000
0.000000
0.000000
0.000000
0.000000
0.000000
0.000000
0.000000
0.000000
0.000000
0.000000
0.000000
0.000000
0.000000
0.000000
0.000000
0.000000
0.000000
0.000000
0.000000
0.000000
0.000000
0.000000
0.000000
0.000000
0.000000
0.000000
0.000000
0.000000
0.000000
0.000000
0.000000
0.000000
0.000000
0.000000
0.000000
0.000000
0.000000
0.000000
0.000000
0.000000
0.000000
0.000000
0.000000
0.000000
0.000000
0.000000
0.000000
0.000000
0.000000
0.000000
0.000000
0.000000
0.000000
0.000000
0.000000
0.000000
0.000000
0.000000
0.000000
0.000000
0.000000
0.000000
0.000000
0.000000
0.000000
0.000000
0.000000
0.000000
0.000000
0.000000
0.000000
0.000000
0.000000
0.000000
0.000000
0.000000
0.000000
0.000000
0.000000
0.000000
0.000000
0.000000
0.000000
0.000000
0.000000
0.000000
0.000000
0.000000
0.000000
0.000000
0.000000
0.000000
0.000000
0.000000
0.000000
0.000000
0.000000
0.000000
0.000000
0.000000
0.000000
0.000000
0.000000
0.000000
0.000000
0.000000
0.000000
0.000000
0.000000
0.000000
0.000000
0.000000
0.000000
0.000000
0.000000
0.000000
0.000000
0.000000
0.000000
0.000000
0.000000
0.000000
0.000000
0.000000
0.000000
0.000000
0.000000
0.000000
0.000000
0.000000
0.000000
0.000000
0.000000
0.000000
0.000000
0.000000
0.000000
0.000000
0.000000
0.000000
0.000000
0.000000
0.000000
0.000000
0.000000
0.000000
0.000000
0.000000
0.000000
0.000000
0.000000
0.000000
0.000000
0.000000
0.000000
0.000000
0.000000
0.000000
0.000000
0.000000
0.000000
0.000000
0.000000
0.000000
0.000000
0.000000
0.000000
0.000000
0.000000
0.000000
0.000000
0.000000
0.000000
0.000000
0.000000
0.000000
0.000000
0.000000
0.000000
0.000000
0.000000
0.000000
0.000000
0.000000
0.000000
0.000000
0.000000
0.000000
0.000000
0.000000
0.000000
0.000000
0.000000
0.000000
0.000000
0.000000
0.000000
0.000000
0.000000
0.000000
0.000000
0.000000
0.000000
0.000000
0.000000
0.000000
0.000000
0.000000
0.000000
0.000000
0.000000
0.000000
0.000000
0.000000
0.000000
0.000000

SCALARS u_x FLOAT 1
LOOKUP_TABLE default
0.000000
0.000000
0.000000
0.000000
0.000000
0.000000
0.000000
0.000000
0.000000
0.000000
0.000000
0.000000
0.000000
0.000000
0.000000
0.000000
0.000000
0.000000
0.000000
0.000000
0.000000
0.000000
0.000000
0.000000
0.000000
0.000000
0.000000
0.000000
0.000000
0.000000
0.000000
0.000000
0.000000
0.000000
0.000000
0.000000
0.000000
0.000000
0.000000
0.000000
0.000000
0.000000
0.000000
0.000000
0.000000
0.000000
0.000000
0.000000
0.000000
0.000000
0.000000
0.000000
0.000000
0.000000
0.000000
0.000000
0.000000
0.000000
0.000000
0.000000
0.000000
0.000000
0.000000
0.000000
0.000000
0.000000
0.000000
0.000000
0.000000
0.000000
0.000000
0.000000
0.000000
0.000000
0.000000
0.000000
0.000000
0.000000
0.000000
0.000000
0.000000
0.000000
0.000000
0.000000
0.000000
0.000000
0.000000
0.000000
0.000000
0.000000
0.000000
0.000000
0.000000
0.000000
0.000000
0.000000
0.000000
0.000000
0.000000
0.000000
0.000000
0.000000
0.000000
0.000000
0.000000
0.000000
0.000000
0.000000
0.000000
0.000000
0.000000
0.000000
0.000000
0.000000
0.000000
0.000000
0.000000
0.000000
0.000000
0.000000
0.000000
0.000000
0.000000
0.000000
0.000000
0.000000
0.000000
0.000000
0.000000
0.000000
0.000000
0.000000
0.000000
0.000000
0.000000
0.000000
0.000000
0.000000
0.000000
0.000000
0.000000
0.000000
0.000000
0.000000
0.000000
0.000000
0.000000
0.000000
0.000000
0.000000
0.000000
0.000000
0.000000
0.000000
0.000000
0.000000
0.000000
0.000000
0.000000
0.000000
0.000000
0.000000
0.000000
0.000000
0.000000
0.000000
0.000000
0.000000
0.000000
0.000000
0.000000
0.000000
0.000000
0.000000
0.000000
0.000000
0.000000
0.000000
0.000000
0.000000
0.000000
0.000000
0.000000
0.000000
0.000000
0.000000
0.000000
0.000000
0.000000
0.000000
0.000000
0.000000
0.000000
0.000000
0.000000
0.000000
0.000000
0.000000
0.000000
0.000000
0.000000
0.000000
0.000000
0.000000
0.000000
0.000000
0.000000
0.000000
0.000000
0.000000
0.000000
0.000000
0.000000
0.000000
0.000000
0.000000
0.000000
0.000000
0.000000
0.000000
0.000000
0.000000
0.000000
0.000000
0.000000
0.000000
0.000000
0.000000
0.000000
0.000000
0.000000
0.000000
0.000000
0.000000
0.000000
0.000000
0.000000
0.000000
0.000000
0.000000
0.000000
0.000000
0.000000
0.000000
0.000000
0.000000
0.000000
0.000000
0.000000
0.000000
0.000000
0.000000
0.000000
0.000000
0.000000
0.000000

SCALARS u_y FLOAT 1
LOOKUP_TABLE default
-0.103002
-0.309007
-0.103002
-0.309007
-0.514757
-0.719668
-0.514757
-0.719668
-0.923814
-1.127334
-0.923814
-1.127334
-1.330303
-1.532595
-1.330303
-1.532595
-1.734185
-1.935092
-1.734185
-1.935092
-2.135380
-2.334969
-2.135380
-2.334969
-2.533856
-2.732036
-2.533856
-2.732036
-2.929577
-3.126392
-2.929577
-3.126392
-3.322456
-3.517819
-3.322456
-3.517819
-3.712489
-3.906429
-3.712489
-3.906429
-4.099570
-4.292021
-4.099570
-4.292021
-4.483732
-4.674726
-4.483732
-4.674726
-4.864888
-5.054287
-4.864888
-5.054287
-5.242883
-5.430764
-5.242883
-5.430764
-5.617766
-5.803989
-5.617766
-5.803989
-5.989404
-6.173943
-5.989404
-6.173943
-6.357603
-6.540406
-6.357603
-6.540406
-6.722538
-6.903719
-6.722538
-6.903719
-7.084103
-7.263540
-7.084103
-7.263540
-7.442098
-7.619705
-7.442098
-7.619705
-7.796338
-7.972263
-7.796338
-7.972263
-8.147097
-8.321148
-8.147097
-8.321148
-8.494102
-8.666166
-8.494102
-8.666166
-8.837208
-9.007238
-8.837208
-9.007238
-9.176367
-9.344376
-9.176367
-9.344376
-9.511508
-9.677601
-9.511508
-9.677601
-9.842533
-10.006507
-9.842533
-10.006507
-10.169176
-10.330967
-10.169176
-10.330967
-10.491551
-10.651122
-10.491551
-10.651122
-10.809668
-10.966928
-10.809668
-10.966928
-11.123093
-11.278001
-11.123093
-11.278001
-11.431835
-11.584396
-11.431835
-11.584396
-11.735616
-11.885798
-11.735616
-11.885798
-12.034581
-12.182188
-12.034581
-12.182188
-12.328538
-12.473311
-12.328538
-12.473311
-12.617076
-12.759274
-12.617076
-12.759274
-12.900266
-13.039763
-12.900266
-13.039763
-13.177825
-13.314575
-13.177825
-13.314575
-13.449733
-13.583476
-13.449733
-13.583476
-13.715845
-13.846415
-13.715845
-13.846415
-13.975727
-14.103244
-13.975727
-14.103244
-14.229333
-14.353874
-14.229333
-14.353874
-14.476463
-14.597770
-14.476463
-14.597770
-14.716962
-14.834705
-14.716962
-14.834705
-14.950451
-15.064516
-14.950451
-15.064516
-15.176654
-15.286898
-15.176654
-15.286898
-15.395249
-15.501751
-15.395249
-15.501751
-15.606199
-15.708968
-15.606199
-15.708968
-15.809153
-15.907700
-15.809153
-15.907700
-16.003522
-16.097454
-16.003522
-16.097454
-16.189226
-16.278813
-16.189226
-16.278813
-16.366278
-16.450846
-16.366278
-16.450846
-16.533243
-16.612925
-16.533243
-16.612925
-16.690465
-16.765300
-16.690465
-16.765300
-16.837093
-16.906318
-16.837093
-16.906318
-16.972784
-17.036693
-16.972784
-17.036693
-17.097442
-17.155173
-17.097442
-17.155173
-17.209805
-17.261105
-17.209805
-17.261105
-17.309214
-17.353790
-17.309214
-17.353790
-17.395334
-17.432929
-17.395334
-17.432929
-17.467285
-17.497361
-17.467285
-17.497361
-17.524046
-17.546095
-17.524046
-17.546095
-17.564632
-17.578034
-17.564632
-17.578034
-17.588146
-17.593703
-17.588146
-17.593703

