# vtk DataFile Version 2.0
MATLAB generated vtk file, WMC
ASCII
DATASET UNSTRUCTURED_GRID
POINTS 256 double
0.195312 0.125160 0.000000 
0.195312 0.375480 0.000000 
0.585938 0.125160 0.000000 
0.585938 0.375480 0.000000 
0.195312 0.626144 0.000000 
0.195312 0.877804 0.000000 
0.585938 0.626144 0.000000 
0.585938 0.877804 0.000000 
0.195312 1.129898 0.000000 
0.195312 1.382645 0.000000 
0.585938 1.129898 0.000000 
0.585938 1.382645 0.000000 
0.195312 1.636074 0.000000 
0.195312 1.890075 0.000000 
0.585938 1.636074 0.000000 
0.585938 1.890075 0.000000 
0.195312 2.144665 0.000000 
0.195312 2.400019 0.000000 
0.585938 2.144665 0.000000 
0.585938 2.400019 0.000000 
0.195312 2.655957 0.000000 
0.195312 2.912521 0.000000 
0.585938 2.655957 0.000000 
0.585938 2.912521 0.000000 
0.195312 3.169743 0.000000 
0.195312 3.427619 0.000000 
0.585938 3.169743 0.000000 
0.585938 3.427619 0.000000 
0.195312 3.686149 0.000000 
0.195312 3.945397 0.000000 
0.585938 3.686149 0.000000 
0.585938 3.945397 0.000000 
0.195312 4.205281 0.000000 
0.195312 4.465805 0.000000 
0.585938 4.205281 0.000000 
0.585938 4.465805 0.000000 
0.195312 4.727059 0.000000 
0.195312 4.988963 0.000000 
0.585938 4.727059 0.000000 
0.585938 4.988963 0.000000 
0.195312 5.251610 0.000000 
0.195312 5.514898 0.000000 
0.585938 5.251610 0.000000 
0.585938 5.514898 0.000000 
0.195312 5.778913 0.000000 
0.195312 6.043583 0.000000 
0.585938 5.778913 0.000000 
0.585938 6.043583 0.000000 
0.195312 6.309110 0.000000 
0.195312 6.575257 0.000000 
0.585938 6.309110 0.000000 
0.585938 6.575257 0.000000 
0.195312 6.842145 0.000000 
0.195312 7.109643 0.000000 
0.585938 6.842145 0.000000 
0.585938 7.109643 0.000000 
0.195312 7.377899 0.000000 
0.195312 7.646967 0.000000 
0.585938 7.377899 0.000000 
0.585938 7.646967 0.000000 
0.195312 7.916719 0.000000 
0.195312 8.187261 0.000000 
0.585938 7.916719 0.000000 
0.585938 8.187261 0.000000 
0.195312 8.458496 0.000000 
0.195312 8.730646 0.000000 
0.585938 8.458496 0.000000 
0.585938 8.730646 0.000000 
0.195312 9.003296 0.000000 
0.195312 9.276981 0.000000 
0.585938 9.003296 0.000000 
0.585938 9.276981 0.000000 
0.195312 9.551269 0.000000 
0.195312 9.826495 0.000000 
0.585938 9.551269 0.000000 
0.585938 9.826495 0.000000 
0.195312 10.102416 0.000000 
0.195312 10.379065 0.000000 
0.585938 10.102416 0.000000 
0.585938 10.379065 0.000000 
0.195312 10.656638 0.000000 
0.195312 10.934798 0.000000 
0.585938 10.656638 0.000000 
0.585938 10.934798 0.000000 
0.195312 11.214009 0.000000 
0.195312 11.493816 0.000000 
0.585938 11.214009 0.000000 
0.585938 11.493816 0.000000 
0.195312 11.774705 0.000000 
0.195312 12.056284 0.000000 
0.585938 11.774705 0.000000 
0.585938 12.056284 0.000000 
0.195312 12.338809 0.000000 
0.195312 12.622212 0.000000 
0.585938 12.338809 0.000000 
0.585938 12.622212 0.000000 
0.195312 12.906221 0.000000 
0.195312 13.191283 0.000000 
0.585938 12.906221 0.000000 
0.585938 13.191283 0.000000 
0.195312 13.477078 0.000000 
0.195312 13.763849 0.000000 
0.585938 13.477078 0.000000 
0.585938 13.763849 0.000000 
0.195312 14.051587 0.000000 
0.195312 14.339969 0.000000 
0.585938 14.051587 0.000000 
0.585938 14.339969 0.000000 
0.195312 14.629629 0.000000 
0.195312 14.919899 0.000000 
0.585938 14.629629 0.000000 
0.585938 14.919899 0.000000 
0.195312 15.211203 0.000000 
0.195312 15.503333 0.000000 
0.585938 15.211203 0.000000 
0.585938 15.503333 0.000000 
0.195312 15.796258 0.000000 
0.195312 16.090416 0.000000 
0.585938 15.796258 0.000000 
0.585938 16.090416 0.000000 
0.195312 16.385378 0.000000 
0.195312 16.681345 0.000000 
0.585938 16.385378 0.000000 
0.585938 16.681345 0.000000 
0.195312 16.978206 0.000000 
0.195312 17.275979 0.000000 
0.585938 16.978206 0.000000 
0.585938 17.275979 0.000000 
0.195312 17.575006 0.000000 
0.195312 17.874928 0.000000 
0.585938 17.575006 0.000000 
0.585938 17.874928 0.000000 
0.195312 18.175798 0.000000 
0.195312 18.477610 0.000000 
0.585938 18.175798 0.000000 
0.585938 18.477610 0.000000 
0.195312 18.780225 0.000000 
0.195312 19.084302 0.000000 
0.585938 18.780225 0.000000 
0.585938 19.084302 0.000000 
0.195312 19.389167 0.000000 
0.195312 19.695267 0.000000 
0.585938 19.389167 0.000000 
0.585938 19.695267 0.000000 
0.195312 20.002153 0.000000 
0.195312 20.310332 0.000000 
0.585938 20.002153 0.000000 
0.585938 20.310332 0.000000 
0.195312 20.619615 0.000000 
0.195312 20.929982 0.000000 
0.585938 20.619615 0.000000 
0.585938 20.929982 0.000000 
0.195312 21.241361 0.000000 
0.195312 21.553859 0.000000 
0.585938 21.241361 0.000000 
0.585938 21.553859 0.000000 
0.195312 21.867313 0.000000 
0.195312 22.182188 0.000000 
0.585938 21.867313 0.000000 
0.585938 22.182188 0.000000 
0.195312 22.498085 0.000000 
0.195312 22.815241 0.000000 
0.585938 22.498085 0.000000 
0.585938 22.815241 0.000000 
0.195312 23.133447 0.000000 
0.195312 23.452851 0.000000 
0.585938 23.133447 0.000000 
0.585938 23.452851 0.000000 
0.195312 23.773517 0.000000 
0.195312 24.095144 0.000000 
0.585938 23.773517 0.000000 
0.585938 24.095144 0.000000 
0.195312 24.418335 0.000000 
0.195312 24.742566 0.000000 
0.585938 24.418335 0.000000 
0.585938 24.742566 0.000000 
0.195312 25.068260 0.000000 
0.195312 25.394831 0.000000 
0.585938 25.068260 0.000000 
0.585938 25.394831 0.000000 
0.195312 25.723007 0.000000 
0.195312 26.052220 0.000000 
0.585938 25.723007 0.000000 
0.585938 26.052220 0.000000 
0.195312 26.382947 0.000000 
0.195312 26.714886 0.000000 
0.585938 26.382947 0.000000 
0.585938 26.714886 0.000000 
0.195312 27.048318 0.000000 
0.195312 27.382891 0.000000 
0.585938 27.048318 0.000000 
0.585938 27.382891 0.000000 
0.195312 27.719000 0.000000 
0.195312 28.056298 0.000000 
0.585938 27.719000 0.000000 
0.585938 28.056298 0.000000 
0.195312 28.395178 0.000000 
0.195312 28.735321 0.000000 
0.585938 28.395178 0.000000 
0.585938 28.735321 0.000000 
0.195312 29.077071 0.000000 
0.195312 29.420186 0.000000 
0.585938 29.077071 0.000000 
0.585938 29.420186 0.000000 
0.195312 29.764901 0.000000 
0.195312 30.111046 0.000000 
0.585938 29.764901 0.000000 
0.585938 30.111046 0.000000 
0.195312 30.458614 0.000000 
0.195312 30.807717 0.000000 
0.585938 30.458614 0.000000 
0.585938 30.807717 0.000000 
0.195312 31.158277 0.000000 
0.195312 31.510457 0.000000 
0.585938 31.158277 0.000000 
0.585938 31.510457 0.000000 
0.195312 31.864075 0.000000 
0.195312 32.219535 0.000000 
0.585938 31.864075 0.000000 
0.585938 32.219535 0.000000 
0.195312 32.576393 0.000000 
0.195312 32.935179 0.000000 
0.585938 32.576393 0.000000 
0.585938 32.935179 0.000000 
0.195312 33.295384 0.000000 
0.195312 33.657565 0.000000 
0.585938 33.295384 0.000000 
0.585938 33.657565 0.000000 
0.195312 34.021205 0.000000 
0.195312 34.386858 0.000000 
0.585938 34.021205 0.000000 
0.585938 34.386858 0.000000 
0.195312 34.754032 0.000000 
0.195312 35.123242 0.000000 
0.585938 34.754032 0.000000 
0.585938 35.123242 0.000000 
0.195312 35.494047 0.000000 
0.195312 35.866910 0.000000 
0.585938 35.494047 0.000000 
0.585938 35.866910 0.000000 
0.195312 36.241420 0.000000 
0.195312 36.617961 0.000000 
0.585938 36.241420 0.000000 
0.585938 36.617961 0.000000 
0.195312 36.996267 0.000000 
0.195312 37.376688 0.000000 
0.585938 36.996267 0.000000 
0.585938 37.376688 0.000000 
0.195312 37.758940 0.000000 
0.195312 38.143450 0.000000 
0.585938 37.758940 0.000000 
0.585938 38.143450 0.000000 
0.195312 38.529795 0.000000 
0.195312 38.917961 0.000000 
0.585938 38.529795 0.000000 
0.585938 38.917961 0.000000 

POINT_DATA 256
SCALARS sigma_xx FLOAT 1
LOOKUP_TABLE default
0.000000
0.000000
0.000000
0.000000
-0.000000
-0.000000
-0.000000
-0.000000
0.000000
0.000000
0.000000
0.000000
0.000000
0.000000
0.000000
0.000000
0.000000
0.000000
0.000000
0.000000
0.000000
0.000000
0.000000
0.000000
0.000000
0.000000
0.000000
0.000000
-0.000000
0.000000
-0.000000
0.000000
0.000000
0.000000
0.000000
0.000000
0.000000
0.000000
0.000000
0.000000
-0.000000
0.000000
-0.000000
0.000000
0.000000
0.000000
0.000000
0.000000
0.000000
0.000000
0.000000
0.000000
0.000000
-0.000000
0.000000
-0.000000
0.000000
-0.000000
0.000000
-0.000000
-0.000000
-0.000000
0.000000
-0.000000
-0.000000
0.000000
-0.000000
0.000000
0.000000
-0.000000
0.000000
-0.000000
-0.000000
-0.000000
-0.000000
-0.000000
-0.000000
-0.000000
-0.000000
-0.000000
0.000000
0.000000
0.000000
0.000000
0.000000
-0.000000
0.000000
-0.000000
-0.000000
-0.000000
-0.000000
-0.000000
0.000000
-0.000000
0.000000
-0.000000
-0.000000
0.000000
-0.000000
0.000000
-0.000000
-0.000000
-0.000000
-0.000000
0.000000
0.000000
0.000000
-0.000000
-0.000000
-0.000000
-0.000000
-0.000000
-0.000000
0.000000
-0.000000
0.000000
0.000000
0.000000
0.000000
0.000000
0.000000
0.000000
0.000000
0.000000
-0.000000
-0.000000
-0.000000
-0.000000
0.000000
-0.000000
0.000000
-0.000000
-0.000000
0.000000
-0.000000
0.000000
-0.000000
-0.000000
-0.000000
-0.000000
-0.000000
-0.000000
-0.000000
-0.000000
-0.000000
0.000000
-0.000000
0.000000
0.000000
-0.000000
-0.000000
-0.000000
-0.000000
-0.000000
-0.000000
-0.000000
-0.000000
0.000000
-0.000000
0.000000
0.000000
-0.000000
-0.000000
-0.000000
-0.000000
-0.000000
-0.000000
-0.000000
-0.000000
-0.000000
-0.000000
-0.000000
0.000000
-0.000000
0.000000
-0.000000
0.000000
-0.000000
0.000000
-0.000000
-0.000000
-0.000000
-0.000000
-0.000000
-0.000000
0.000000
-0.000000
0.000000
-0.000000
-0.000000
-0.000000
-0.000000
-0.000000
-0.000000
-0.000000
-0.000000
-0.000000
-0.000000
-0.000000
-0.000000
-0.000000
-0.000000
-0.000000
-0.000000
-0.000000
0.000000
0.000000
-0.000000
0.000000
-0.000000
0.000000
-0.000000
0.000000
-0.000000
0.000000
-0.000000
-0.000000
-0.000000
-0.000000
-0.000000
-0.000000
0.000000
-0.000000
0.000000
0.000000
-0.000000
0.000000
-0.000000
-0.000000
0.000000
-0.000000
0.000000
0.000000
-0.000000
0.000000
0.000000
-0.000000
0.000000
-0.000000
0.000000
0.000000
-0.000000
0.000000
-0.000000
-0.000000
-0.000000
-0.000000
-0.000000
-0.000000
-0.000000
-0.000000
-0.000000
0.000000
-0.000000
0.000000
-0.000000

SCALARS sigma_yy FLOAT 1
LOOKUP_TABLE default
-6944.388100
-6944.388100
-6944.388100
-6944.388100
-6862.677920
-6806.270823
-6862.677920
-6806.270823
-6755.948203
-6702.502110
-6755.948203
-6702.502110
-6637.970238
-6599.430650
-6637.970238
-6599.430650
-6532.626661
-6479.420596
-6532.626661
-6479.420596
-6425.198878
-6376.338712
-6425.198878
-6376.338712
-6313.621650
-6268.584334
-6313.621650
-6268.584334
-6202.403655
-6152.961093
-6202.403655
-6152.961093
-6094.862740
-6048.308796
-6094.862740
-6048.308796
-5983.552173
-5940.234348
-5983.552173
-5940.234348
-5872.979447
-5829.672792
-5872.979447
-5829.672792
-5763.414259
-5719.988604
-5763.414259
-5719.988604
-5648.447856
-5612.132511
-5648.447856
-5612.132511
-5540.473221
-5512.065407
-5540.473221
-5512.065407
-5434.003013
-5394.589345
-5434.003013
-5394.589345
-5321.650402
-5287.488073
-5321.650402
-5287.488073
-5214.197881
-5173.066778
-5214.197881
-5173.066778
-5112.414337
-5058.108024
-5112.414337
-5058.108024
-5004.852936
-4942.984935
-5004.852936
-4942.984935
-4897.573271
-4839.586791
-4897.573271
-4839.586791
-4786.305784
-4736.293259
-4786.305784
-4736.293259
-4672.788964
-4631.141761
-4672.788964
-4631.141761
-4554.155645
-4518.144435
-4554.155645
-4518.144435
-4440.340881
-4410.771153
-4440.340881
-4410.771153
-4347.701714
-4295.997112
-4347.701714
-4295.997112
-4241.158927
-4178.754649
-4241.158927
-4178.754649
-4128.331401
-4078.404537
-4128.331401
-4078.404537
-4004.625707
-3979.992620
-4004.625707
-3979.992620
-3893.764221
-3874.665494
-3893.764221
-3874.665494
-3791.590143
-3750.754164
-3791.590143
-3750.754164
-3686.746429
-3640.514923
-3686.746429
-3640.514923
-3580.819193
-3533.661382
-3580.819193
-3533.661382
-3456.672795
-3426.342585
-3456.672795
-3426.342585
-3352.147476
-3327.421568
-3352.147476
-3327.421568
-3247.320534
-3202.939928
-3247.320534
-3202.939928
-3139.156048
-3094.864653
-3139.156048
-3094.864653
-3037.278505
-2978.175428
-3037.278505
-2978.175428
-2920.340461
-2871.452185
-2920.340461
-2871.452185
-2815.260750
-2767.955639
-2815.260750
-2767.955639
-2708.311492
-2648.548234
-2708.311492
-2648.548234
-2598.262350
-2538.715189
-2598.262350
-2538.715189
-2494.094053
-2428.614054
-2494.094053
-2428.614054
-2384.743075
-2324.326371
-2384.743075
-2324.326371
-2266.232087
-2212.336518
-2266.232087
-2212.336518
-2159.096723
-2112.960171
-2159.096723
-2112.960171
-2045.794098
-2005.079696
-2045.794098
-2005.079696
-1934.504330
-1892.480091
-1934.504330
-1892.480091
-1824.145506
-1785.886300
-1824.145506
-1785.886300
-1714.140224
-1677.874815
-1714.140224
-1677.874815
-1603.638926
-1568.540747
-1603.638926
-1568.540747
-1492.130163
-1457.313208
-1492.130163
-1457.313208
-1380.313616
-1348.844677
-1380.313616
-1348.844677
-1274.841819
-1241.100216
-1274.841819
-1241.100216
-1167.367278
-1133.729192
-1167.367278
-1133.729192
-1058.995459
-1020.869321
-1058.995459
-1020.869321
-950.931642
-908.465191
-950.931642
-908.465191
-842.575925
-796.678785
-842.575925
-796.678785
-734.323360
-685.336140
-734.323360
-685.336140
-626.007641
-574.446018
-626.007641
-574.446018
-517.651015
-463.827640
-517.651015
-463.827640
-410.628043
-355.795737
-410.628043
-355.795737
-301.889308
-245.162874
-301.889308
-245.162874
-193.557837
-132.580336
-193.557837
-132.580336
-86.508224
-23.730357
-86.508224
-23.730357

SCALARS sigma_zz FLOAT 1
LOOKUP_TABLE default
0.000000
0.000000
0.000000
0.000000
0.000000
0.000000
0.000000
0.000000
0.000000
0.000000
0.000000
0.000000
0.000000
0.000000
0.000000
0.000000
0.000000
0.000000
0.000000
0.000000
0.000000
0.000000
0.000000
0.000000
0.000000
0.000000
0.000000
0.000000
0.000000
0.000000
0.000000
0.000000
0.000000
0.000000
0.000000
0.000000
0.000000
0.000000
0.000000
0.000000
0.000000
0.000000
0.000000
0.000000
0.000000
0.000000
0.000000
0.000000
0.000000
0.000000
0.000000
0.000000
0.000000
0.000000
0.000000
0.000000
0.000000
0.000000
0.000000
0.000000
0.000000
0.000000
0.000000
0.000000
0.000000
0.000000
0.000000
0.000000
0.000000
0.000000
0.000000
0.000000
0.000000
0.000000
0.000000
0.000000
0.000000
0.000000
0.000000
0.000000
0.000000
0.000000
0.000000
0.000000
0.000000
0.000000
0.000000
0.000000
0.000000
0.000000
0.000000
0.000000
0.000000
0.000000
0.000000
0.000000
0.000000
0.000000
0.000000
0.000000
0.000000
0.000000
0.000000
0.000000
0.000000
0.000000
0.000000
0.000000
0.000000
0.000000
0.000000
0.000000
0.000000
0.000000
0.000000
0.000000
0.000000
0.000000
0.000000
0.000000
0.000000
0.000000
0.000000
0.000000
0.000000
0.000000
0.000000
0.000000
0.000000
0.000000
0.000000
0.000000
0.000000
0.000000
0.000000
0.000000
0.000000
0.000000
0.000000
0.000000
0.000000
0.000000
0.000000
0.000000
0.000000
0.000000
0.000000
0.000000
0.000000
0.000000
0.000000
0.000000
0.000000
0.000000
0.000000
0.000000
0.000000
0.000000
0.000000
0.000000
0.000000
0.000000
0.000000
0.000000
0.000000
0.000000
0.000000
0.000000
0.000000
0.000000
0.000000
0.000000
0.000000
0.000000
0.000000
0.000000
0.000000
0.000000
0.000000
0.000000
0.000000
0.000000
0.000000
0.000000
0.000000
0.000000
0.000000
0.000000
0.000000
0.000000
0.000000
0.000000
0.000000
0.000000
0.000000
0.000000
0.000000
0.000000
0.000000
0.000000
0.000000
0.000000
0.000000
0.000000
0.000000
0.000000
0.000000
0.000000
0.000000
0.000000
0.000000
0.000000
0.000000
0.000000
0.000000
0.000000
0.000000
0.000000
0.000000
0.000000
0.000000
0.000000
0.000000
0.000000
0.000000
0.000000
0.000000
0.000000
0.000000
0.000000
0.000000
0.000000
0.000000
0.000000
0.000000
0.000000
0.000000
0.000000
0.000000
0.000000
0.000000
0.000000
0.000000
0.000000
0.000000
0.000000
0.000000
0.000000
0.000000
0.000000
0.000000
0.000000
0.000000
0.000000
0.000000
0.000000

SCALARS sigma_xy FLOAT 1
LOOKUP_TABLE default
0.000000
0.000000
0.000000
0.000000
-0.000000
-0.000000
-0.000000
-0.000000
0.000000
0.000000
0.000000
0.000000
0.000000
0.000000
0.000000
0.000000
0.000000
0.000000
0.000000
0.000000
0.000000
0.000000
0.000000
0.000000
0.000000
0.000000
0.000000
0.000000
-0.000000
0.000000
-0.000000
0.000000
0.000000
0.000000
0.000000
0.000000
0.000000
0.000000
0.000000
0.000000
0.000000
0.000000
0.000000
0.000000
0.000000
0.000000
0.000000
0.000000
0.000000
0.000000
0.000000
0.000000
0.000000
0.000000
0.000000
0.000000
0.000000
0.000000
0.000000
0.000000
0.000000
-0.000000
0.000000
-0.000000
-0.000000
0.000000
-0.000000
0.000000
0.000000
0.000000
0.000000
0.000000
0.000000
0.000000
0.000000
0.000000
-0.000000
-0.000000
-0.000000
-0.000000
0.000000
0.000000
0.000000
0.000000
0.000000
-0.000000
0.000000
-0.000000
-0.000000
-0.000000
-0.000000
-0.000000
0.000000
0.000000
0.000000
0.000000
-0.000000
0.000000
-0.000000
0.000000
0.000000
0.000000
0.000000
0.000000
0.000000
0.000000
0.000000
-0.000000
-0.000000
-0.000000
-0.000000
-0.000000
0.000000
0.000000
0.000000
0.000000
0.000000
0.000000
0.000000
0.000000
0.000000
0.000000
0.000000
0.000000
-0.000000
-0.000000
-0.000000
-0.000000
0.000000
0.000000
0.000000
0.000000
0.000000
0.000000
0.000000
0.000000
-0.000000
-0.000000
-0.000000
-0.000000
0.000000
0.000000
0.000000
0.000000
-0.000000
0.000000
-0.000000
0.000000
0.000000
0.000000
0.000000
0.000000
-0.000000
-0.000000
-0.000000
-0.000000
0.000000
0.000000
0.000000
0.000000
0.000000
-0.000000
-0.000000
-0.000000
-0.000000
-0.000000
-0.000000
-0.000000
-0.000000
-0.000000
-0.000000
-0.000000
0.000000
0.000000
0.000000
0.000000
0.000000
-0.000000
0.000000
-0.000000
-0.000000
0.000000
-0.000000
0.000000
-0.000000
0.000000
-0.000000
0.000000
0.000000
0.000000
0.000000
0.000000
-0.000000
-0.000000
-0.000000
-0.000000
-0.000000
0.000000
-0.000000
0.000000
-0.000000
0.000000
0.000000
0.000000
0.000000
0.000000
0.000000
0.000000
0.000000
0.000000
0.000000
0.000000
0.000000
-0.000000
0.000000
0.000000
0.000000
0.000000
0.000000
0.000000
-0.000000
0.000000
-0.000000
0.000000
0.000000
-0.000000
0.000000
-0.000000
-0.000000
0.000000
-0.000000
0.000000
0.000000
-0.000000
0.000000
0.000000
0.000000
0.000000
0.000000
0.000000
0.000000
0.000000
0.000000
0.000000
-0.000000
-0.000000
-0.000000
-0.000000
-0.000000
-0.000000
-0.000000
-0.000000
0.000000
0.000000
0.000000
0.000000

SCALARS sigma_yz FLOAT 1
LOOKUP_TABLE default
0.000000
0.000000
0.000000
0.000000
0.000000
0.000000
0.000000
0.000000
0.000000
0.000000
0.000000
0.000000
0.000000
0.000000
0.000000
0.000000
0.000000
0.000000
0.000000
0.000000
0.000000
0.000000
0.000000
0.000000
0.000000
0.000000
0.000000
0.000000
0.000000
0.000000
0.000000
0.000000
0.000000
0.000000
0.000000
0.000000
0.000000
0.000000
0.000000
0.000000
0.000000
0.000000
0.000000
0.000000
0.000000
0.000000
0.000000
0.000000
0.000000
0.000000
0.000000
0.000000
0.000000
0.000000
0.000000
0.000000
0.000000
0.000000
0.000000
0.000000
0.000000
0.000000
0.000000
0.000000
0.000000
0.000000
0.000000
0.000000
0.000000
0.000000
0.000000
0.000000
0.000000
0.000000
0.000000
0.000000
0.000000
0.000000
0.000000
0.000000
0.000000
0.000000
0.000000
0.000000
0.000000
0.000000
0.000000
0.000000
0.000000
0.000000
0.000000
0.000000
0.000000
0.000000
0.000000
0.000000
0.000000
0.000000
0.000000
0.000000
0.000000
0.000000
0.000000
0.000000
0.000000
0.000000
0.000000
0.000000
0.000000
0.000000
0.000000
0.000000
0.000000
0.000000
0.000000
0.000000
0.000000
0.000000
0.000000
0.000000
0.000000
0.000000
0.000000
0.000000
0.000000
0.000000
0.000000
0.000000
0.000000
0.000000
0.000000
0.000000
0.000000
0.000000
0.000000
0.000000
0.000000
0.000000
0.000000
0.000000
0.000000
0.000000
0.000000
0.000000
0.000000
0.000000
0.000000
0.000000
0.000000
0.000000
0.000000
0.000000
0.000000
0.000000
0.000000
0.000000
0.000000
0.000000
0.000000
0.000000
0.000000
0.000000
0.000000
0.000000
0.000000
0.000000
0.000000
0.000000
0.000000
0.000000
0.000000
0.000000
0.000000
0.000000
0.000000
0.000000
0.000000
0.000000
0.000000
0.000000
0.000000
0.000000
0.000000
0.000000
0.000000
0.000000
0.000000
0.000000
0.000000
0.000000
0.000000
0.000000
0.000000
0.000000
0.000000
0.000000
0.000000
0.000000
0.000000
0.000000
0.000000
0.000000
0.000000
0.000000
0.000000
0.000000
0.000000
0.000000
0.000000
0.000000
0.000000
0.000000
0.000000
0.000000
0.000000
0.000000
0.000000
0.000000
0.000000
0.000000
0.000000
0.000000
0.000000
0.000000
0.000000
0.000000
0.000000
0.000000
0.000000
0.000000
0.000000
0.000000
0.000000
0.000000
0.000000
0.000000
0.000000
0.000000
0.000000
0.000000
0.000000
0.000000
0.000000
0.000000
0.000000
0.000000
0.000000
0.000000
0.000000
0.000000
0.000000
0.000000
0.000000
0.000000
0.000000
0.000000

SCALARS sigma_zx FLOAT 1
LOOKUP_TABLE default
0.000000
0.000000
0.000000
0.000000
0.000000
0.000000
0.000000
0.000000
0.000000
0.000000
0.000000
0.000000
0.000000
0.000000
0.000000
0.000000
0.000000
0.000000
0.000000
0.000000
0.000000
0.000000
0.000000
0.000000
0.000000
0.000000
0.000000
0.000000
0.000000
0.000000
0.000000
0.000000
0.000000
0.000000
0.000000
0.000000
0.000000
0.000000
0.000000
0.000000
0.000000
0.000000
0.000000
0.000000
0.000000
0.000000
0.000000
0.000000
0.000000
0.000000
0.000000
0.000000
0.000000
0.000000
0.000000
0.000000
0.000000
0.000000
0.000000
0.000000
0.000000
0.000000
0.000000
0.000000
0.000000
0.000000
0.000000
0.000000
0.000000
0.000000
0.000000
0.000000
0.000000
0.000000
0.000000
0.000000
0.000000
0.000000
0.000000
0.000000
0.000000
0.000000
0.000000
0.000000
0.000000
0.000000
0.000000
0.000000
0.000000
0.000000
0.000000
0.000000
0.000000
0.000000
0.000000
0.000000
0.000000
0.000000
0.000000
0.000000
0.000000
0.000000
0.000000
0.000000
0.000000
0.000000
0.000000
0.000000
0.000000
0.000000
0.000000
0.000000
0.000000
0.000000
0.000000
0.000000
0.000000
0.000000
0.000000
0.000000
0.000000
0.000000
0.000000
0.000000
0.000000
0.000000
0.000000
0.000000
0.000000
0.000000
0.000000
0.000000
0.000000
0.000000
0.000000
0.000000
0.000000
0.000000
0.000000
0.000000
0.000000
0.000000
0.000000
0.000000
0.000000
0.000000
0.000000
0.000000
0.000000
0.000000
0.000000
0.000000
0.000000
0.000000
0.000000
0.000000
0.000000
0.000000
0.000000
0.000000
0.000000
0.000000
0.000000
0.000000
0.000000
0.000000
0.000000
0.000000
0.000000
0.000000
0.000000
0.000000
0.000000
0.000000
0.000000
0.000000
0.000000
0.000000
0.000000
0.000000
0.000000
0.000000
0.000000
0.000000
0.000000
0.000000
0.000000
0.000000
0.000000
0.000000
0.000000
0.000000
0.000000
0.000000
0.000000
0.000000
0.000000
0.000000
0.000000
0.000000
0.000000
0.000000
0.000000
0.000000
0.000000
0.000000
0.000000
0.000000
0.000000
0.000000
0.000000
0.000000
0.000000
0.000000
0.000000
0.000000
0.000000
0.000000
0.000000
0.000000
0.000000
0.000000
0.000000
0.000000
0.000000
0.000000
0.000000
0.000000
0.000000
0.000000
0.000000
0.000000
0.000000
0.000000
0.000000
0.000000
0.000000
0.000000
0.000000
0.000000
0.000000
0.000000
0.000000
0.000000
0.000000
0.000000
0.000000
0.000000
0.000000
0.000000
0.000000
0.000000
0.000000
0.000000
0.000000
0.000000

SCALARS u_x FLOAT 1
LOOKUP_TABLE default
0.000000
0.000000
0.000000
0.000000
0.000000
0.000000
0.000000
0.000000
0.000000
0.000000
0.000000
0.000000
0.000000
0.000000
0.000000
0.000000
0.000000
0.000000
0.000000
0.000000
0.000000
0.000000
0.000000
0.000000
0.000000
0.000000
0.000000
0.000000
0.000000
0.000000
0.000000
0.000000
0.000000
0.000000
0.000000
0.000000
0.000000
0.000000
0.000000
0.000000
0.000000
0.000000
0.000000
0.000000
0.000000
0.000000
0.000000
0.000000
0.000000
0.000000
0.000000
0.000000
0.000000
0.000000
0.000000
0.000000
0.000000
0.000000
0.000000
0.000000
0.000000
0.000000
0.000000
0.000000
0.000000
0.000000
0.000000
0.000000
0.000000
0.000000
0.000000
0.000000
0.000000
0.000000
0.000000
0.000000
0.000000
0.000000
0.000000
0.000000
0.000000
0.000000
0.000000
0.000000
0.000000
0.000000
0.000000
0.000000
0.000000
0.000000
0.000000
0.000000
0.000000
0.000000
0.000000
0.000000
0.000000
0.000000
0.000000
0.000000
0.000000
0.000000
0.000000
0.000000
0.000000
0.000000
0.000000
0.000000
0.000000
0.000000
0.000000
0.000000
0.000000
0.000000
0.000000
0.000000
0.000000
0.000000
0.000000
0.000000
0.000000
0.000000
0.000000
0.000000
0.000000
0.000000
0.000000
0.000000
0.000000
0.000000
0.000000
0.000000
0.000000
0.000000
0.000000
0.000000
0.000000
0.000000
0.000000
0.000000
0.000000
0.000000
0.000000
0.000000
0.000000
0.000000
0.000000
0.000000
0.000000
0.000000
0.000000
0.000000
0.000000
0.000000
0.000000
0.000000
0.000000
0.000000
0.000000
0.000000
0.000000
0.000000
0.000000
0.000000
0.000000
0.000000
0.000000
0.000000
0.000000
0.000000
0.000000
0.000000
0.000000
0.000000
0.000000
0.000000
0.000000
0.000000
0.000000
0.000000
0.000000
0.000000
0.000000
0.000000
0.000000
0.000000
0.000000
0.000000
0.000000
0.000000
0.000000
0.000000
0.000000
0.000000
0.000000
0.000000
0.000000
0.000000
0.000000
0.000000
0.000000
0.000000
0.000000
0.000000
0.000000
0.000000
0.000000
0.000000
0.000000
0.000000
0.000000
0.000000
0.000000
0.000000
0.000000
0.000000
0.000000
0.000000
0.000000
0.000000
0.000000
0.000000
0.000000
0.000000
0.000000
0.000000
0.000000
0.000000
0.000000
0.000000
0.000000
0.000000
0.000000
0.000000
0.000000
0.000000
0.000000
0.000000
0.000000
0.000000
0.000000
0.000000
0.000000
0.000000
0.000000
0.000000
0.000000
0.000000
0.000000
0.000000
0.000000
0.000000
0.000000
0.000000
0.000000
0.000000

SCALARS u_y FLOAT 1
LOOKUP_TABLE default
-0.070153
-0.210458
-0.070153
-0.210458
-0.350418
-0.489384
-0.350418
-0.489384
-0.627915
-0.765792
-0.627915
-0.765792
-0.902988
-1.039613
-0.902988
-1.039613
-1.175647
-1.310919
-1.175647
-1.310919
-1.445606
-1.579666
-1.445606
-1.579666
-1.713070
-1.845819
-1.713070
-1.845819
-1.977914
-2.109291
-1.977914
-2.109291
-2.240031
-2.370133
-2.240031
-2.370133
-2.499503
-2.628225
-2.499503
-2.628225
-2.756202
-2.883539
-2.756202
-2.883539
-3.010150
-3.136104
-3.010150
-3.136104
-3.261202
-3.385680
-3.261202
-3.385680
-3.509417
-3.632545
-3.509417
-3.632545
-3.754914
-3.876471
-3.754914
-3.876471
-3.997344
-4.117426
-3.997344
-4.117426
-4.236816
-4.355291
-4.236816
-4.355291
-4.473266
-4.590207
-4.473266
-4.590207
-4.706544
-4.821943
-4.706544
-4.821943
-4.936646
-5.050623
-4.936646
-5.050623
-5.163674
-5.276140
-5.163674
-5.276140
-5.387554
-5.498371
-5.387554
-5.498371
-5.608107
-5.717154
-5.608107
-5.717154
-5.825253
-5.932475
-5.825253
-5.932475
-6.039091
-6.144655
-6.039091
-6.144655
-6.249485
-6.353339
-6.249485
-6.353339
-6.456226
-6.558469
-6.456226
-6.558469
-6.659433
-6.759789
-6.659433
-6.759789
-6.859109
-6.957605
-6.859109
-6.957605
-7.055305
-7.151772
-7.055305
-7.151772
-7.247435
-7.342092
-7.247435
-7.342092
-7.435857
-7.528708
-7.435857
-7.528708
-7.620306
-7.711009
-7.620306
-7.711009
-7.800764
-7.889578
-7.800764
-7.889578
-7.977587
-8.064136
-7.977587
-8.064136
-8.149895
-8.234421
-8.149895
-8.234421
-8.318159
-8.400605
-8.318159
-8.400605
-8.481947
-8.562205
-8.481947
-8.562205
-8.641452
-8.719579
-8.641452
-8.719579
-8.796749
-8.872500
-8.796749
-8.872500
-8.947228
-9.020696
-8.947228
-9.020696
-9.093116
-9.164336
-9.093116
-9.164336
-9.234295
-9.303294
-9.234295
-9.303294
-9.370727
-9.437121
-9.370727
-9.437121
-9.502052
-9.566106
-9.502052
-9.566106
-9.628556
-9.689968
-9.628556
-9.689968
-9.749866
-9.808552
-9.749866
-9.808552
-9.865744
-9.921796
-9.865744
-9.921796
-9.976312
-10.029640
-9.976312
-10.029640
-10.081385
-10.131866
-10.081385
-10.131866
-10.180742
-10.228252
-10.180742
-10.228252
-10.274161
-10.318642
-10.274161
-10.318642
-10.361699
-10.403220
-10.361699
-10.403220
-10.443285
-10.481730
-10.443285
-10.481730
-10.518738
-10.553902
-10.518738
-10.553902
-10.587669
-10.619508
-10.587669
-10.619508
-10.649929
-10.678373
-10.649929
-10.678373
-10.705357
-10.730330
-10.705357
-10.730330
-10.753780
-10.775196
-10.753780
-10.775196
-10.795015
-10.812778
-10.795015
-10.812778
-10.828892
-10.842977
-10.828892
-10.842977
-10.855295
-10.865499
-10.855295
-10.865499
-10.873873
-10.879987
-10.873873
-10.879987
-10.884268
-10.886727
-10.884268
-10.886727

