# vtk DataFile Version 2.0
MATLAB generated vtk file, WMC
ASCII
DATASET UNSTRUCTURED_GRID
POINTS 256 double
0.195312 0.069893 0.000000 
0.195312 0.209679 0.000000 
0.585938 0.069893 0.000000 
0.585938 0.209679 0.000000 
0.195312 0.349658 0.000000 
0.195312 0.490272 0.000000 
0.585938 0.349658 0.000000 
0.585938 0.490272 0.000000 
0.195312 0.631508 0.000000 
0.195312 0.773484 0.000000 
0.585938 0.631508 0.000000 
0.585938 0.773484 0.000000 
0.195312 0.916052 0.000000 
0.195312 1.059141 0.000000 
0.585938 0.916052 0.000000 
0.585938 1.059141 0.000000 
0.195312 1.202776 0.000000 
0.195312 1.347047 0.000000 
0.585938 1.202776 0.000000 
0.585938 1.347047 0.000000 
0.195312 1.491966 0.000000 
0.195312 1.637549 0.000000 
0.585938 1.491966 0.000000 
0.585938 1.637549 0.000000 
0.195312 1.783695 0.000000 
0.195312 1.930462 0.000000 
0.585938 1.783695 0.000000 
0.585938 1.930462 0.000000 
0.195312 2.077838 0.000000 
0.195312 2.225893 0.000000 
0.585938 2.077838 0.000000 
0.585938 2.225893 0.000000 
0.195312 2.374611 0.000000 
0.195312 2.523952 0.000000 
0.585938 2.374611 0.000000 
0.585938 2.523952 0.000000 
0.195312 2.673927 0.000000 
0.195312 2.824565 0.000000 
0.585938 2.673927 0.000000 
0.585938 2.824565 0.000000 
0.195312 2.975924 0.000000 
0.195312 3.128005 0.000000 
0.585938 2.975924 0.000000 
0.585938 3.128005 0.000000 
0.195312 3.280786 0.000000 
0.195312 3.434207 0.000000 
0.585938 3.280786 0.000000 
0.585938 3.434207 0.000000 
0.195312 3.588339 0.000000 
0.195312 3.743193 0.000000 
0.585938 3.588339 0.000000 
0.585938 3.743193 0.000000 
0.195312 3.898817 0.000000 
0.195312 4.055120 0.000000 
0.585938 3.898817 0.000000 
0.585938 4.055120 0.000000 
0.195312 4.212204 0.000000 
0.195312 4.370036 0.000000 
0.585938 4.212204 0.000000 
0.585938 4.370036 0.000000 
0.195312 4.528612 0.000000 
0.195312 4.687989 0.000000 
0.585938 4.528612 0.000000 
0.585938 4.687989 0.000000 
0.195312 4.848134 0.000000 
0.195312 5.009091 0.000000 
0.585938 4.848134 0.000000 
0.585938 5.009091 0.000000 
0.195312 5.170746 0.000000 
0.195312 5.333309 0.000000 
0.585938 5.170746 0.000000 
0.585938 5.333309 0.000000 
0.195312 5.496674 0.000000 
0.195312 5.660895 0.000000 
0.585938 5.496674 0.000000 
0.585938 5.660895 0.000000 
0.195312 5.825904 0.000000 
0.195312 5.991774 0.000000 
0.585938 5.825904 0.000000 
0.585938 5.991774 0.000000 
0.195312 6.158572 0.000000 
0.195312 6.326165 0.000000 
0.585938 6.158572 0.000000 
0.585938 6.326165 0.000000 
0.195312 6.494752 0.000000 
0.195312 6.664132 0.000000 
0.585938 6.494752 0.000000 
0.585938 6.664132 0.000000 
0.195312 6.834558 0.000000 
0.195312 7.005845 0.000000 
0.585938 6.834558 0.000000 
0.585938 7.005845 0.000000 
0.195312 7.178047 0.000000 
0.195312 7.351186 0.000000 
0.585938 7.178047 0.000000 
0.585938 7.351186 0.000000 
0.195312 7.525251 0.000000 
0.195312 7.700398 0.000000 
0.585938 7.525251 0.000000 
0.585938 7.700398 0.000000 
0.195312 7.876508 0.000000 
0.195312 8.053631 0.000000 
0.585938 7.876508 0.000000 
0.585938 8.053631 0.000000 
0.195312 8.231809 0.000000 
0.195312 8.410916 0.000000 
0.585938 8.231809 0.000000 
0.585938 8.410916 0.000000 
0.195312 8.591200 0.000000 
0.195312 8.772471 0.000000 
0.585938 8.591200 0.000000 
0.585938 8.772471 0.000000 
0.195312 8.954902 0.000000 
0.195312 9.138427 0.000000 
0.585938 8.954902 0.000000 
0.585938 9.138427 0.000000 
0.195312 9.323075 0.000000 
0.195312 9.508847 0.000000 
0.585938 9.323075 0.000000 
0.585938 9.508847 0.000000 
0.195312 9.695729 0.000000 
0.195312 9.883809 0.000000 
0.585938 9.695729 0.000000 
0.585938 9.883809 0.000000 
0.195312 10.073021 0.000000 
0.195312 10.263494 0.000000 
0.585938 10.073021 0.000000 
0.585938 10.263494 0.000000 
0.195312 10.455282 0.000000 
0.195312 10.648211 0.000000 
0.585938 10.455282 0.000000 
0.585938 10.648211 0.000000 
0.195312 10.842548 0.000000 
0.195312 11.038096 0.000000 
0.585938 10.842548 0.000000 
0.585938 11.038096 0.000000 
0.195312 11.234918 0.000000 
0.195312 11.433239 0.000000 
0.585938 11.234918 0.000000 
0.585938 11.433239 0.000000 
0.195312 11.632778 0.000000 
0.195312 11.833845 0.000000 
0.585938 11.632778 0.000000 
0.585938 11.833845 0.000000 
0.195312 12.036189 0.000000 
0.195312 12.239981 0.000000 
0.585938 12.036189 0.000000 
0.585938 12.239981 0.000000 
0.195312 12.445211 0.000000 
0.195312 12.651960 0.000000 
0.585938 12.445211 0.000000 
0.585938 12.651960 0.000000 
0.195312 12.860334 0.000000 
0.195312 13.070351 0.000000 
0.585938 12.860334 0.000000 
0.585938 13.070351 0.000000 
0.195312 13.281918 0.000000 
0.195312 13.495203 0.000000 
0.585938 13.281918 0.000000 
0.585938 13.495203 0.000000 
0.195312 13.709968 0.000000 
0.195312 13.926494 0.000000 
0.585938 13.709968 0.000000 
0.585938 13.926494 0.000000 
0.195312 14.144575 0.000000 
0.195312 14.364472 0.000000 
0.585938 14.144575 0.000000 
0.585938 14.364472 0.000000 
0.195312 14.586387 0.000000 
0.195312 14.809980 0.000000 
0.585938 14.586387 0.000000 
0.585938 14.809980 0.000000 
0.195312 15.035724 0.000000 
0.195312 15.263131 0.000000 
0.585938 15.035724 0.000000 
0.585938 15.263131 0.000000 
0.195312 15.492545 0.000000 
0.195312 15.723832 0.000000 
0.585938 15.492545 0.000000 
0.585938 15.723832 0.000000 
0.195312 15.957313 0.000000 
0.195312 16.192868 0.000000 
0.585938 15.957313 0.000000 
0.585938 16.192868 0.000000 
0.195312 16.430602 0.000000 
0.195312 16.670558 0.000000 
0.585938 16.430602 0.000000 
0.585938 16.670558 0.000000 
0.195312 16.912916 0.000000 
0.195312 17.157332 0.000000 
0.585938 16.912916 0.000000 
0.585938 17.157332 0.000000 
0.195312 17.404516 0.000000 
0.195312 17.653941 0.000000 
0.585938 17.404516 0.000000 
0.585938 17.653941 0.000000 
0.195312 17.906091 0.000000 
0.195312 18.160436 0.000000 
0.585938 17.906091 0.000000 
0.585938 18.160436 0.000000 
0.195312 18.417646 0.000000 
0.195312 18.677828 0.000000 
0.585938 18.417646 0.000000 
0.585938 18.677828 0.000000 
0.195312 18.940543 0.000000 
0.195312 19.206273 0.000000 
0.585938 18.940543 0.000000 
0.585938 19.206273 0.000000 
0.195312 19.474850 0.000000 
0.195312 19.746837 0.000000 
0.585938 19.474850 0.000000 
0.585938 19.746837 0.000000 
0.195312 20.021699 0.000000 
0.195312 20.299972 0.000000 
0.585938 20.021699 0.000000 
0.585938 20.299972 0.000000 
0.195312 20.581818 0.000000 
0.195312 20.867151 0.000000 
0.585938 20.581818 0.000000 
0.585938 20.867151 0.000000 
0.195312 21.156488 0.000000 
0.195312 21.449098 0.000000 
0.585938 21.156488 0.000000 
0.585938 21.449098 0.000000 
0.195312 21.745562 0.000000 
0.195312 22.045923 0.000000 
0.585938 21.745562 0.000000 
0.585938 22.045923 0.000000 
0.195312 22.350890 0.000000 
0.195312 22.660626 0.000000 
0.585938 22.350890 0.000000 
0.585938 22.660626 0.000000 
0.195312 22.974640 0.000000 
0.195312 23.293357 0.000000 
0.585938 22.974640 0.000000 
0.585938 23.293357 0.000000 
0.195312 23.616684 0.000000 
0.195312 23.945862 0.000000 
0.585938 23.616684 0.000000 
0.585938 23.945862 0.000000 
0.195312 24.279999 0.000000 
0.195312 24.620666 0.000000 
0.585938 24.279999 0.000000 
0.585938 24.620666 0.000000 
0.195312 24.967036 0.000000 
0.195312 25.320065 0.000000 
0.585938 24.967036 0.000000 
0.585938 25.320065 0.000000 
0.195312 25.679083 0.000000 
0.195312 26.046423 0.000000 
0.585938 25.679083 0.000000 
0.585938 26.046423 0.000000 
0.195312 26.419691 0.000000 
0.195312 26.799833 0.000000 
0.585938 26.419691 0.000000 
0.585938 26.799833 0.000000 

POINT_DATA 256
SCALARS sigma_xx FLOAT 1
LOOKUP_TABLE default
0.000000
0.000000
0.000000
0.000000
0.000000
-0.000000
0.000000
-0.000000
-0.000000
-0.000000
-0.000000
-0.000000
0.000000
0.000000
0.000000
0.000000
-0.000000
-0.000000
-0.000000
-0.000000
-0.000000
-0.000000
-0.000000
-0.000000
-0.000000
-0.000000
-0.000000
-0.000000
0.000000
-0.000000
0.000000
-0.000000
-0.000000
-0.000000
-0.000000
-0.000000
-0.000000
0.000000
-0.000000
0.000000
-0.000000
0.000000
0.000000
0.000000
-0.000000
-0.000000
-0.000000
-0.000000
-0.000000
-0.000000
-0.000000
-0.000000
-0.000000
-0.000000
-0.000000
-0.000000
-0.000000
-0.000000
-0.000000
-0.000000
-0.000000
-0.000000
-0.000000
-0.000000
-0.000000
0.000000
-0.000000
0.000000
-0.000000
-0.000000
-0.000000
-0.000000
-0.000000
-0.000000
-0.000000
-0.000000
-0.000000
-0.000000
-0.000000
-0.000000
-0.000000
0.000000
-0.000000
0.000000
-0.000000
-0.000000
-0.000000
-0.000000
-0.000000
-0.000000
-0.000000
-0.000000
-0.000000
-0.000000
-0.000000
-0.000000
-0.000000
-0.000000
-0.000000
-0.000000
-0.000000
-0.000000
-0.000000
-0.000000
-0.000000
-0.000000
-0.000000
-0.000000
-0.000000
-0.000000
-0.000000
-0.000000
-0.000000
-0.000000
-0.000000
-0.000000
-0.000000
-0.000000
-0.000000
-0.000000
-0.000000
-0.000000
-0.000000
-0.000000
-0.000000
-0.000000
-0.000000
-0.000000
0.000000
-0.000000
0.000000
-0.000000
-0.000000
-0.000000
-0.000000
-0.000000
-0.000000
-0.000000
-0.000000
-0.000000
-0.000000
-0.000000
-0.000000
-0.000000
-0.000000
-0.000000
-0.000000
-0.000000
0.000000
-0.000000
-0.000000
-0.000000
-0.000000
-0.000000
-0.000000
-0.000000
-0.000000
-0.000000
-0.000000
-0.000000
-0.000000
-0.000000
-0.000000
-0.000000
-0.000000
-0.000000
-0.000000
-0.000000
-0.000000
-0.000000
-0.000000
-0.000000
-0.000000
-0.000000
-0.000000
-0.000000
-0.000000
-0.000000
-0.000000
-0.000000
-0.000000
-0.000000
-0.000000
-0.000000
0.000000
-0.000000
0.000000
-0.000000
-0.000000
-0.000000
-0.000000
-0.000000
0.000000
-0.000000
0.000000
-0.000000
-0.000000
-0.000000
-0.000000
-0.000000
-0.000000
0.000000
-0.000000
0.000000
-0.000000
-0.000000
-0.000000
-0.000000
-0.000000
-0.000000
-0.000000
-0.000000
0.000000
-0.000000
0.000000
0.000000
-0.000000
-0.000000
-0.000000
-0.000000
0.000000
0.000000
0.000000
-0.000000
0.000000
0.000000
0.000000
0.000000
-0.000000
-0.000000
-0.000000
-0.000000
0.000000
-0.000000
0.000000
-0.000000
-0.000000
-0.000000
-0.000000
-0.000000
-0.000000
-0.000000
-0.000000
-0.000000
-0.000000
0.000000
-0.000000
0.000000
-0.000000
0.000000
0.000000
0.000000
-0.000000
-0.000000
-0.000000
-0.000000

SCALARS sigma_yy FLOAT 1
LOOKUP_TABLE default
-28716.639513
-28716.639513
-28716.639513
-28716.639513
-28511.248030
-28273.987508
-28511.248030
-28273.987508
-27981.437330
-27728.299078
-27981.437330
-27728.299078
-27506.217532
-27325.501054
-27506.217532
-27325.501054
-27084.196230
-26856.386472
-27084.196230
-26856.386472
-26594.564744
-26388.175105
-26594.564744
-26388.175105
-26160.588102
-25953.115523
-26160.588102
-25953.115523
-25711.518911
-25484.382462
-25711.518911
-25484.382462
-25243.793423
-25052.489385
-25243.793423
-25052.489385
-24812.754625
-24604.183098
-24812.754625
-24604.183098
-24341.891887
-24119.314294
-24341.891887
-24119.314294
-23882.673331
-23699.254418
-23882.673331
-23699.254418
-23447.193669
-23232.850591
-23447.193669
-23232.850591
-22979.250637
-22782.346761
-22979.250637
-22782.346761
-22531.198930
-22330.121372
-22531.198930
-22330.121372
-22072.585288
-21869.981682
-22072.585288
-21869.981682
-21635.183340
-21412.978514
-21635.183340
-21412.978514
-21192.574432
-20964.078864
-21192.574432
-20964.078864
-20726.090148
-20505.937673
-20726.090148
-20505.937673
-20283.175495
-20061.977105
-20283.175495
-20061.977105
-19810.982026
-19606.111960
-19810.982026
-19606.111960
-19367.118395
-19151.039279
-19367.118395
-19151.039279
-18887.978926
-18701.762540
-18887.978926
-18701.762540
-18461.742954
-18252.050761
-18461.742954
-18252.050761
-18017.312623
-17779.910649
-18017.312623
-17779.910649
-17550.204900
-17332.749226
-17550.204900
-17332.749226
-17098.155992
-16888.925765
-17098.155992
-16888.925765
-16650.377756
-16431.910892
-16650.377756
-16431.910892
-16178.702818
-15974.192890
-16178.702818
-15974.192890
-15726.235853
-15525.568770
-15726.235853
-15525.568770
-15292.829417
-15079.532811
-15292.829417
-15079.532811
-14833.932200
-14627.821392
-14833.932200
-14627.821392
-14369.225997
-14176.135931
-14369.225997
-14176.135931
-13912.023979
-13717.553687
-13912.023979
-13717.553687
-13470.694161
-13262.633050
-13470.694161
-13262.633050
-13019.041789
-12805.597039
-13019.041789
-12805.597039
-12580.650588
-12362.492448
-12580.650588
-12362.492448
-12135.930188
-11910.801501
-12135.930188
-11910.801501
-11651.006942
-11433.149616
-11651.006942
-11433.149616
-11206.235514
-10972.483975
-11206.235514
-10972.483975
-10775.353265
-10536.431683
-10775.353265
-10536.431683
-10329.282889
-10075.085497
-10329.282889
-10075.085497
-9856.379972
-9611.789639
-9856.379972
-9611.789639
-9389.827233
-9179.676785
-9389.827233
-9179.676785
-8951.036576
-8732.645970
-8951.036576
-8732.645970
-8506.006578
-8267.492735
-8506.006578
-8267.492735
-8054.279379
-7810.138718
-8054.279379
-7810.138718
-7591.507994
-7368.904897
-7591.507994
-7368.904897
-7117.741459
-6917.322970
-7117.741459
-6917.322970
-6667.936090
-6484.612794
-6667.936090
-6484.612794
-6210.475789
-6004.710539
-6210.475789
-6004.710539
-5779.224849
-5560.267963
-5779.224849
-5560.267963
-5327.641128
-5092.240173
-5327.641128
-5092.240173
-4874.596475
-4646.617721
-4874.596475
-4646.617721
-4413.010273
-4175.193067
-4413.010273
-4175.193067
-3944.870164
-3755.457308
-3944.870164
-3755.457308
-3521.571713
-3307.582279
-3521.571713
-3307.582279
-3038.329554
-2826.905796
-3038.329554
-2826.905796
-2593.422250
-2403.413503
-2593.422250
-2403.413503
-2150.311705
-1936.458543
-2150.311705
-1936.458543
-1698.230579
-1463.750180
-1698.230579
-1463.750180
-1235.624717
-1018.660841
-1235.624717
-1018.660841
-795.386146
-555.634709
-795.386146
-555.634709
-355.939424
-94.059680
-355.939424
-94.059680

SCALARS sigma_zz FLOAT 1
LOOKUP_TABLE default
0.000000
0.000000
0.000000
0.000000
0.000000
0.000000
0.000000
0.000000
0.000000
0.000000
0.000000
0.000000
0.000000
0.000000
0.000000
0.000000
0.000000
0.000000
0.000000
0.000000
0.000000
0.000000
0.000000
0.000000
0.000000
0.000000
0.000000
0.000000
0.000000
0.000000
0.000000
0.000000
0.000000
0.000000
0.000000
0.000000
0.000000
0.000000
0.000000
0.000000
0.000000
0.000000
0.000000
0.000000
0.000000
0.000000
0.000000
0.000000
0.000000
0.000000
0.000000
0.000000
0.000000
0.000000
0.000000
0.000000
0.000000
0.000000
0.000000
0.000000
0.000000
0.000000
0.000000
0.000000
0.000000
0.000000
0.000000
0.000000
0.000000
0.000000
0.000000
0.000000
0.000000
0.000000
0.000000
0.000000
0.000000
0.000000
0.000000
0.000000
0.000000
0.000000
0.000000
0.000000
0.000000
0.000000
0.000000
0.000000
0.000000
0.000000
0.000000
0.000000
0.000000
0.000000
0.000000
0.000000
0.000000
0.000000
0.000000
0.000000
0.000000
0.000000
0.000000
0.000000
0.000000
0.000000
0.000000
0.000000
0.000000
0.000000
0.000000
0.000000
0.000000
0.000000
0.000000
0.000000
0.000000
0.000000
0.000000
0.000000
0.000000
0.000000
0.000000
0.000000
0.000000
0.000000
0.000000
0.000000
0.000000
0.000000
0.000000
0.000000
0.000000
0.000000
0.000000
0.000000
0.000000
0.000000
0.000000
0.000000
0.000000
0.000000
0.000000
0.000000
0.000000
0.000000
0.000000
0.000000
0.000000
0.000000
0.000000
0.000000
0.000000
0.000000
0.000000
0.000000
0.000000
0.000000
0.000000
0.000000
0.000000
0.000000
0.000000
0.000000
0.000000
0.000000
0.000000
0.000000
0.000000
0.000000
0.000000
0.000000
0.000000
0.000000
0.000000
0.000000
0.000000
0.000000
0.000000
0.000000
0.000000
0.000000
0.000000
0.000000
0.000000
0.000000
0.000000
0.000000
0.000000
0.000000
0.000000
0.000000
0.000000
0.000000
0.000000
0.000000
0.000000
0.000000
0.000000
0.000000
0.000000
0.000000
0.000000
0.000000
0.000000
0.000000
0.000000
0.000000
0.000000
0.000000
0.000000
0.000000
0.000000
0.000000
0.000000
0.000000
0.000000
0.000000
0.000000
0.000000
0.000000
0.000000
0.000000
0.000000
0.000000
0.000000
0.000000
0.000000
0.000000
0.000000
0.000000
0.000000
0.000000
0.000000
0.000000
0.000000
0.000000
0.000000
0.000000
0.000000
0.000000
0.000000
0.000000
0.000000
0.000000
0.000000
0.000000
0.000000
0.000000
0.000000
0.000000
0.000000
0.000000
0.000000
0.000000
0.000000

SCALARS sigma_xy FLOAT 1
LOOKUP_TABLE default
0.000000
0.000000
0.000000
0.000000
0.000000
-0.000000
0.000000
-0.000000
-0.000000
-0.000000
-0.000000
-0.000000
0.000000
0.000000
0.000000
0.000000
0.000000
0.000000
0.000000
0.000000
-0.000000
-0.000000
-0.000000
-0.000000
-0.000000
-0.000000
-0.000000
-0.000000
0.000000
0.000000
0.000000
0.000000
0.000000
0.000000
0.000000
0.000000
0.000000
0.000000
0.000000
0.000000
0.000000
0.000000
0.000000
0.000000
-0.000000
-0.000000
-0.000000
-0.000000
-0.000000
-0.000000
-0.000000
-0.000000
-0.000000
0.000000
-0.000000
0.000000
0.000000
0.000000
0.000000
0.000000
0.000000
0.000000
0.000000
0.000000
0.000000
0.000000
0.000000
0.000000
-0.000000
-0.000000
-0.000000
-0.000000
-0.000000
0.000000
-0.000000
0.000000
-0.000000
-0.000000
-0.000000
-0.000000
0.000000
0.000000
0.000000
0.000000
0.000000
0.000000
0.000000
0.000000
0.000000
0.000000
0.000000
0.000000
-0.000000
-0.000000
-0.000000
-0.000000
-0.000000
-0.000000
-0.000000
-0.000000
0.000000
0.000000
0.000000
0.000000
-0.000000
0.000000
-0.000000
0.000000
-0.000000
0.000000
-0.000000
0.000000
0.000000
0.000000
0.000000
0.000000
0.000000
-0.000000
0.000000
-0.000000
-0.000000
-0.000000
-0.000000
-0.000000
-0.000000
-0.000000
-0.000000
-0.000000
0.000000
0.000000
0.000000
0.000000
0.000000
0.000000
0.000000
0.000000
-0.000000
-0.000000
-0.000000
-0.000000
-0.000000
0.000000
-0.000000
0.000000
-0.000000
-0.000000
-0.000000
-0.000000
0.000000
-0.000000
0.000000
-0.000000
0.000000
0.000000
0.000000
0.000000
0.000000
0.000000
0.000000
0.000000
-0.000000
-0.000000
-0.000000
-0.000000
-0.000000
0.000000
-0.000000
0.000000
0.000000
0.000000
0.000000
0.000000
-0.000000
0.000000
-0.000000
0.000000
0.000000
-0.000000
0.000000
-0.000000
-0.000000
-0.000000
-0.000000
-0.000000
0.000000
-0.000000
0.000000
-0.000000
0.000000
0.000000
0.000000
0.000000
0.000000
-0.000000
0.000000
-0.000000
-0.000000
0.000000
-0.000000
0.000000
0.000000
0.000000
0.000000
0.000000
-0.000000
-0.000000
-0.000000
-0.000000
0.000000
0.000000
0.000000
0.000000
0.000000
-0.000000
0.000000
0.000000
-0.000000
0.000000
-0.000000
0.000000
0.000000
0.000000
0.000000
0.000000
0.000000
0.000000
0.000000
0.000000
-0.000000
-0.000000
-0.000000
-0.000000
0.000000
-0.000000
0.000000
-0.000000
0.000000
0.000000
0.000000
0.000000
0.000000
0.000000
0.000000
0.000000
-0.000000
0.000000
-0.000000
0.000000
0.000000
0.000000
0.000000
0.000000
-0.000000
-0.000000
-0.000000
-0.000000

SCALARS sigma_yz FLOAT 1
LOOKUP_TABLE default
0.000000
0.000000
0.000000
0.000000
0.000000
0.000000
0.000000
0.000000
0.000000
0.000000
0.000000
0.000000
0.000000
0.000000
0.000000
0.000000
0.000000
0.000000
0.000000
0.000000
0.000000
0.000000
0.000000
0.000000
0.000000
0.000000
0.000000
0.000000
0.000000
0.000000
0.000000
0.000000
0.000000
0.000000
0.000000
0.000000
0.000000
0.000000
0.000000
0.000000
0.000000
0.000000
0.000000
0.000000
0.000000
0.000000
0.000000
0.000000
0.000000
0.000000
0.000000
0.000000
0.000000
0.000000
0.000000
0.000000
0.000000
0.000000
0.000000
0.000000
0.000000
0.000000
0.000000
0.000000
0.000000
0.000000
0.000000
0.000000
0.000000
0.000000
0.000000
0.000000
0.000000
0.000000
0.000000
0.000000
0.000000
0.000000
0.000000
0.000000
0.000000
0.000000
0.000000
0.000000
0.000000
0.000000
0.000000
0.000000
0.000000
0.000000
0.000000
0.000000
0.000000
0.000000
0.000000
0.000000
0.000000
0.000000
0.000000
0.000000
0.000000
0.000000
0.000000
0.000000
0.000000
0.000000
0.000000
0.000000
0.000000
0.000000
0.000000
0.000000
0.000000
0.000000
0.000000
0.000000
0.000000
0.000000
0.000000
0.000000
0.000000
0.000000
0.000000
0.000000
0.000000
0.000000
0.000000
0.000000
0.000000
0.000000
0.000000
0.000000
0.000000
0.000000
0.000000
0.000000
0.000000
0.000000
0.000000
0.000000
0.000000
0.000000
0.000000
0.000000
0.000000
0.000000
0.000000
0.000000
0.000000
0.000000
0.000000
0.000000
0.000000
0.000000
0.000000
0.000000
0.000000
0.000000
0.000000
0.000000
0.000000
0.000000
0.000000
0.000000
0.000000
0.000000
0.000000
0.000000
0.000000
0.000000
0.000000
0.000000
0.000000
0.000000
0.000000
0.000000
0.000000
0.000000
0.000000
0.000000
0.000000
0.000000
0.000000
0.000000
0.000000
0.000000
0.000000
0.000000
0.000000
0.000000
0.000000
0.000000
0.000000
0.000000
0.000000
0.000000
0.000000
0.000000
0.000000
0.000000
0.000000
0.000000
0.000000
0.000000
0.000000
0.000000
0.000000
0.000000
0.000000
0.000000
0.000000
0.000000
0.000000
0.000000
0.000000
0.000000
0.000000
0.000000
0.000000
0.000000
0.000000
0.000000
0.000000
0.000000
0.000000
0.000000
0.000000
0.000000
0.000000
0.000000
0.000000
0.000000
0.000000
0.000000
0.000000
0.000000
0.000000
0.000000
0.000000
0.000000
0.000000
0.000000
0.000000
0.000000
0.000000
0.000000
0.000000
0.000000
0.000000
0.000000
0.000000
0.000000
0.000000
0.000000
0.000000
0.000000

SCALARS sigma_zx FLOAT 1
LOOKUP_TABLE default
0.000000
0.000000
0.000000
0.000000
0.000000
0.000000
0.000000
0.000000
0.000000
0.000000
0.000000
0.000000
0.000000
0.000000
0.000000
0.000000
0.000000
0.000000
0.000000
0.000000
0.000000
0.000000
0.000000
0.000000
0.000000
0.000000
0.000000
0.000000
0.000000
0.000000
0.000000
0.000000
0.000000
0.000000
0.000000
0.000000
0.000000
0.000000
0.000000
0.000000
0.000000
0.000000
0.000000
0.000000
0.000000
0.000000
0.000000
0.000000
0.000000
0.000000
0.000000
0.000000
0.000000
0.000000
0.000000
0.000000
0.000000
0.000000
0.000000
0.000000
0.000000
0.000000
0.000000
0.000000
0.000000
0.000000
0.000000
0.000000
0.000000
0.000000
0.000000
0.000000
0.000000
0.000000
0.000000
0.000000
0.000000
0.000000
0.000000
0.000000
0.000000
0.000000
0.000000
0.000000
0.000000
0.000000
0.000000
0.000000
0.000000
0.000000
0.000000
0.000000
0.000000
0.000000
0.000000
0.000000
0.000000
0.000000
0.000000
0.000000
0.000000
0.000000
0.000000
0.000000
0.000000
0.000000
0.000000
0.000000
0.000000
0.000000
0.000000
0.000000
0.000000
0.000000
0.000000
0.000000
0.000000
0.000000
0.000000
0.000000
0.000000
0.000000
0.000000
0.000000
0.000000
0.000000
0.000000
0.000000
0.000000
0.000000
0.000000
0.000000
0.000000
0.000000
0.000000
0.000000
0.000000
0.000000
0.000000
0.000000
0.000000
0.000000
0.000000
0.000000
0.000000
0.000000
0.000000
0.000000
0.000000
0.000000
0.000000
0.000000
0.000000
0.000000
0.000000
0.000000
0.000000
0.000000
0.000000
0.000000
0.000000
0.000000
0.000000
0.000000
0.000000
0.000000
0.000000
0.000000
0.000000
0.000000
0.000000
0.000000
0.000000
0.000000
0.000000
0.000000
0.000000
0.000000
0.000000
0.000000
0.000000
0.000000
0.000000
0.000000
0.000000
0.000000
0.000000
0.000000
0.000000
0.000000
0.000000
0.000000
0.000000
0.000000
0.000000
0.000000
0.000000
0.000000
0.000000
0.000000
0.000000
0.000000
0.000000
0.000000
0.000000
0.000000
0.000000
0.000000
0.000000
0.000000
0.000000
0.000000
0.000000
0.000000
0.000000
0.000000
0.000000
0.000000
0.000000
0.000000
0.000000
0.000000
0.000000
0.000000
0.000000
0.000000
0.000000
0.000000
0.000000
0.000000
0.000000
0.000000
0.000000
0.000000
0.000000
0.000000
0.000000
0.000000
0.000000
0.000000
0.000000
0.000000
0.000000
0.000000
0.000000
0.000000
0.000000
0.000000
0.000000
0.000000
0.000000
0.000000
0.000000
0.000000
0.000000
0.000000

SCALARS u_x FLOAT 1
LOOKUP_TABLE default
0.000000
0.000000
0.000000
0.000000
0.000000
0.000000
0.000000
0.000000
0.000000
0.000000
0.000000
0.000000
0.000000
0.000000
0.000000
0.000000
0.000000
0.000000
0.000000
0.000000
0.000000
0.000000
0.000000
0.000000
0.000000
0.000000
0.000000
0.000000
0.000000
0.000000
0.000000
0.000000
0.000000
0.000000
0.000000
0.000000
0.000000
0.000000
0.000000
0.000000
0.000000
0.000000
0.000000
0.000000
0.000000
0.000000
0.000000
0.000000
0.000000
0.000000
0.000000
0.000000
0.000000
0.000000
0.000000
0.000000
0.000000
0.000000
0.000000
0.000000
0.000000
0.000000
0.000000
0.000000
0.000000
0.000000
0.000000
0.000000
0.000000
0.000000
0.000000
0.000000
0.000000
0.000000
0.000000
0.000000
0.000000
0.000000
0.000000
0.000000
0.000000
0.000000
0.000000
0.000000
0.000000
0.000000
0.000000
0.000000
0.000000
0.000000
0.000000
0.000000
0.000000
0.000000
0.000000
0.000000
0.000000
0.000000
0.000000
0.000000
0.000000
0.000000
0.000000
0.000000
0.000000
0.000000
0.000000
0.000000
0.000000
0.000000
0.000000
0.000000
0.000000
0.000000
0.000000
0.000000
0.000000
0.000000
0.000000
0.000000
0.000000
0.000000
0.000000
0.000000
0.000000
0.000000
0.000000
0.000000
0.000000
0.000000
0.000000
0.000000
0.000000
0.000000
0.000000
0.000000
0.000000
0.000000
0.000000
0.000000
0.000000
0.000000
0.000000
0.000000
0.000000
0.000000
0.000000
0.000000
0.000000
0.000000
0.000000
0.000000
0.000000
0.000000
0.000000
0.000000
0.000000
0.000000
0.000000
0.000000
0.000000
0.000000
0.000000
0.000000
0.000000
0.000000
0.000000
0.000000
0.000000
0.000000
0.000000
0.000000
0.000000
0.000000
0.000000
0.000000
0.000000
0.000000
0.000000
0.000000
0.000000
0.000000
0.000000
0.000000
0.000000
0.000000
0.000000
0.000000
0.000000
0.000000
0.000000
0.000000
0.000000
0.000000
0.000000
0.000000
0.000000
0.000000
0.000000
0.000000
0.000000
0.000000
0.000000
0.000000
0.000000
0.000000
0.000000
0.000000
0.000000
0.000000
0.000000
0.000000
0.000000
0.000000
0.000000
0.000000
0.000000
0.000000
0.000000
0.000000
0.000000
0.000000
0.000000
0.000000
0.000000
0.000000
0.000000
0.000000
0.000000
0.000000
0.000000
0.000000
0.000000
0.000000
0.000000
0.000000
0.000000
0.000000
0.000000
0.000000
0.000000
0.000000
0.000000
0.000000
0.000000
0.000000
0.000000
0.000000
0.000000
0.000000
0.000000
0.000000
0.000000
0.000000
0.000000
0.000000

SCALARS u_y FLOAT 1
LOOKUP_TABLE default
-0.125419
-0.376258
-0.125419
-0.376258
-0.626904
-0.876915
-0.626904
-0.876915
-1.126304
-1.374953
-1.126304
-1.374953
-1.623011
-1.870547
-1.623011
-1.870547
-2.117537
-2.363890
-2.117537
-2.363890
-2.609597
-2.854639
-2.609597
-2.854639
-3.099117
-3.342976
-3.099117
-3.342976
-3.586224
-3.828795
-3.586224
-3.828795
-4.070702
-4.311986
-4.070702
-4.311986
-4.552636
-4.792623
-4.552636
-4.792623
-5.031888
-5.270432
-5.031888
-5.270432
-5.508276
-5.745480
-5.508276
-5.745480
-5.981973
-6.217745
-5.981973
-6.217745
-6.452746
-6.687068
-6.452746
-6.687068
-6.920609
-7.153401
-6.920609
-7.153401
-7.385450
-7.616698
-7.385450
-7.616698
-7.847179
-8.076847
-7.847179
-8.076847
-8.305816
-8.533878
-8.305816
-8.533878
-8.761139
-8.987543
-8.761139
-8.987543
-9.213158
-9.437913
-9.213158
-9.437913
-9.661741
-9.884773
-9.661741
-9.884773
-10.106810
-10.328056
-10.106810
-10.328056
-10.548255
-10.767593
-10.548255
-10.767593
-10.986016
-11.203502
-10.986016
-11.203502
-11.420062
-11.635539
-11.420062
-11.635539
-11.850054
-12.063556
-11.850054
-12.063556
-12.276004
-12.487521
-12.276004
-12.487521
-12.697863
-12.907217
-12.697863
-12.907217
-13.115410
-13.322510
-13.115410
-13.322510
-13.528487
-13.733340
-13.528487
-13.733340
-13.937083
-14.139628
-13.937083
-14.139628
-14.341041
-14.541193
-14.341041
-14.541193
-14.740031
-14.937726
-14.740031
-14.937726
-15.134015
-15.329091
-15.134015
-15.329091
-15.522895
-15.715199
-15.522895
-15.715199
-15.906284
-16.095843
-15.906284
-16.095843
-16.284123
-16.470956
-16.284123
-16.470956
-16.656351
-16.840228
-16.656351
-16.840228
-17.022478
-17.203086
-17.022478
-17.203086
-17.382144
-17.559484
-17.382144
-17.559484
-17.735345
-17.909443
-17.735345
-17.909443
-18.081987
-18.252715
-18.081987
-18.252715
-18.421425
-18.588457
-18.421425
-18.588457
-18.753339
-18.916556
-18.753339
-18.916556
-19.077767
-19.237105
-19.077767
-19.237105
-19.394249
-19.549320
-19.394249
-19.549320
-19.702211
-19.852880
-19.702211
-19.852880
-20.001147
-20.147355
-20.001147
-20.147355
-20.290797
-20.431997
-20.290797
-20.431997
-20.570471
-20.706752
-20.570471
-20.706752
-20.840167
-20.970609
-20.840167
-20.970609
-21.098519
-21.223414
-21.098519
-21.223414
-21.345463
-21.464100
-21.345463
-21.464100
-21.579864
-21.692215
-21.579864
-21.692215
-21.800995
-21.906286
-21.800995
-21.906286
-22.007574
-22.105589
-22.007574
-22.105589
-22.199751
-22.290015
-22.199751
-22.290015
-22.375673
-22.456561
-22.375673
-22.456561
-22.533172
-22.605081
-22.533172
-22.605081
-22.672379
-22.733825
-22.672379
-22.733825
-22.790314
-22.840271
-22.790314
-22.840271
-22.884526
-22.922122
-22.884526
-22.922122
-22.953730
-22.977015
-22.953730
-22.977015
-22.994372
-23.004855
-22.994372
-23.004855

