# vtk DataFile Version 2.0
MATLAB generated vtk file, WMC
ASCII
DATASET UNSTRUCTURED_GRID
POINTS 256 double
0.195312 0.081751 0.000000 
0.195312 0.245253 0.000000 
0.585938 0.081751 0.000000 
0.585938 0.245253 0.000000 
0.195312 0.408981 0.000000 
0.195312 0.573452 0.000000 
0.585938 0.408981 0.000000 
0.585938 0.573452 0.000000 
0.195312 0.738648 0.000000 
0.195312 0.904589 0.000000 
0.585938 0.738648 0.000000 
0.585938 0.904589 0.000000 
0.195312 1.071044 0.000000 
0.195312 1.238099 0.000000 
0.585938 1.071044 0.000000 
0.585938 1.238099 0.000000 
0.195312 1.405792 0.000000 
0.195312 1.574214 0.000000 
0.585938 1.405792 0.000000 
0.585938 1.574214 0.000000 
0.195312 1.743264 0.000000 
0.195312 1.912937 0.000000 
0.585938 1.743264 0.000000 
0.585938 1.912937 0.000000 
0.195312 2.083241 0.000000 
0.195312 2.254268 0.000000 
0.585938 2.083241 0.000000 
0.585938 2.254268 0.000000 
0.195312 2.425986 0.000000 
0.195312 2.598364 0.000000 
0.585938 2.425986 0.000000 
0.585938 2.598364 0.000000 
0.195312 2.771416 0.000000 
0.195312 2.945176 0.000000 
0.585938 2.771416 0.000000 
0.585938 2.945176 0.000000 
0.195312 3.119661 0.000000 
0.195312 3.294820 0.000000 
0.585938 3.119661 0.000000 
0.585938 3.294820 0.000000 
0.195312 3.470702 0.000000 
0.195312 3.647294 0.000000 
0.585938 3.470702 0.000000 
0.585938 3.647294 0.000000 
0.195312 3.824645 0.000000 
0.195312 4.002727 0.000000 
0.585938 3.824645 0.000000 
0.585938 4.002727 0.000000 
0.195312 4.181572 0.000000 
0.195312 4.361167 0.000000 
0.585938 4.181572 0.000000 
0.585938 4.361167 0.000000 
0.195312 4.541591 0.000000 
0.195312 4.722757 0.000000 
0.585938 4.541591 0.000000 
0.585938 4.722757 0.000000 
0.195312 4.904740 0.000000 
0.195312 5.087469 0.000000 
0.585938 4.904740 0.000000 
0.585938 5.087469 0.000000 
0.195312 5.270962 0.000000 
0.195312 5.455285 0.000000 
0.585938 5.270962 0.000000 
0.585938 5.455285 0.000000 
0.195312 5.640430 0.000000 
0.195312 5.826461 0.000000 
0.585938 5.640430 0.000000 
0.585938 5.826461 0.000000 
0.195312 6.013240 0.000000 
0.195312 6.200982 0.000000 
0.585938 6.013240 0.000000 
0.585938 6.200982 0.000000 
0.195312 6.389530 0.000000 
0.195312 6.578953 0.000000 
0.585938 6.389530 0.000000 
0.585938 6.578953 0.000000 
0.195312 6.769191 0.000000 
0.195312 6.960328 0.000000 
0.585938 6.769191 0.000000 
0.585938 6.960328 0.000000 
0.195312 7.152450 0.000000 
0.195312 7.345345 0.000000 
0.585938 7.152450 0.000000 
0.585938 7.345345 0.000000 
0.195312 7.539323 0.000000 
0.195312 7.734138 0.000000 
0.585938 7.539323 0.000000 
0.585938 7.734138 0.000000 
0.195312 7.930007 0.000000 
0.195312 8.126715 0.000000 
0.585938 7.930007 0.000000 
0.585938 8.126715 0.000000 
0.195312 8.324388 0.000000 
0.195312 8.523090 0.000000 
0.585938 8.324388 0.000000 
0.585938 8.523090 0.000000 
0.195312 8.722757 0.000000 
0.195312 8.923498 0.000000 
0.585938 8.722757 0.000000 
0.585938 8.923498 0.000000 
0.195312 9.125154 0.000000 
0.195312 9.327858 0.000000 
0.585938 9.125154 0.000000 
0.585938 9.327858 0.000000 
0.195312 9.531669 0.000000 
0.195312 9.736462 0.000000 
0.585938 9.531669 0.000000 
0.585938 9.736462 0.000000 
0.195312 9.942520 0.000000 
0.195312 10.149607 0.000000 
0.585938 9.942520 0.000000 
0.585938 10.149607 0.000000 
0.195312 10.357845 0.000000 
0.195312 10.567107 0.000000 
0.585938 10.357845 0.000000 
0.585938 10.567107 0.000000 
0.195312 10.777478 0.000000 
0.195312 10.989044 0.000000 
0.585938 10.777478 0.000000 
0.585938 10.989044 0.000000 
0.195312 11.201769 0.000000 
0.195312 11.415760 0.000000 
0.585938 11.201769 0.000000 
0.585938 11.415760 0.000000 
0.195312 11.630895 0.000000 
0.195312 11.847253 0.000000 
0.585938 11.630895 0.000000 
0.585938 11.847253 0.000000 
0.195312 12.064921 0.000000 
0.195312 12.283699 0.000000 
0.585938 12.064921 0.000000 
0.585938 12.283699 0.000000 
0.195312 12.503933 0.000000 
0.195312 12.725390 0.000000 
0.585938 12.503933 0.000000 
0.585938 12.725390 0.000000 
0.195312 12.948155 0.000000 
0.195312 13.172473 0.000000 
0.585938 12.948155 0.000000 
0.585938 13.172473 0.000000 
0.195312 13.397909 0.000000 
0.195312 13.624887 0.000000 
0.585938 13.397909 0.000000 
0.585938 13.624887 0.000000 
0.195312 13.853115 0.000000 
0.195312 14.082868 0.000000 
0.585938 13.853115 0.000000 
0.585938 14.082868 0.000000 
0.195312 14.314077 0.000000 
0.195312 14.546748 0.000000 
0.585938 14.314077 0.000000 
0.585938 14.546748 0.000000 
0.195312 14.781052 0.000000 
0.195312 15.016824 0.000000 
0.585938 14.781052 0.000000 
0.585938 15.016824 0.000000 
0.195312 15.254053 0.000000 
0.195312 15.493107 0.000000 
0.585938 15.254053 0.000000 
0.585938 15.493107 0.000000 
0.195312 15.733597 0.000000 
0.195312 15.975858 0.000000 
0.585938 15.733597 0.000000 
0.585938 15.975858 0.000000 
0.195312 16.219631 0.000000 
0.195312 16.465187 0.000000 
0.585938 16.219631 0.000000 
0.585938 16.465187 0.000000 
0.195312 16.712710 0.000000 
0.195312 16.961590 0.000000 
0.585938 16.712710 0.000000 
0.585938 16.961590 0.000000 
0.195312 17.212652 0.000000 
0.195312 17.465289 0.000000 
0.585938 17.212652 0.000000 
0.585938 17.465289 0.000000 
0.195312 17.720017 0.000000 
0.195312 17.976582 0.000000 
0.585938 17.720017 0.000000 
0.585938 17.976582 0.000000 
0.195312 18.235143 0.000000 
0.195312 18.495682 0.000000 
0.585938 18.235143 0.000000 
0.585938 18.495682 0.000000 
0.195312 18.758281 0.000000 
0.195312 19.022990 0.000000 
0.585938 18.758281 0.000000 
0.585938 19.022990 0.000000 
0.195312 19.289974 0.000000 
0.195312 19.558742 0.000000 
0.585938 19.289974 0.000000 
0.585938 19.558742 0.000000 
0.195312 19.830199 0.000000 
0.195312 20.103621 0.000000 
0.585938 19.830199 0.000000 
0.585938 20.103621 0.000000 
0.195312 20.379755 0.000000 
0.195312 20.657891 0.000000 
0.585938 20.379755 0.000000 
0.585938 20.657891 0.000000 
0.195312 20.938662 0.000000 
0.195312 21.222037 0.000000 
0.585938 20.938662 0.000000 
0.585938 21.222037 0.000000 
0.195312 21.507700 0.000000 
0.195312 21.796418 0.000000 
0.585938 21.507700 0.000000 
0.585938 21.796418 0.000000 
0.195312 22.087642 0.000000 
0.195312 22.381956 0.000000 
0.585938 22.087642 0.000000 
0.585938 22.381956 0.000000 
0.195312 22.678669 0.000000 
0.195312 22.978314 0.000000 
0.585938 22.678669 0.000000 
0.585938 22.978314 0.000000 
0.195312 23.281348 0.000000 
0.195312 23.587295 0.000000 
0.585938 23.281348 0.000000 
0.585938 23.587295 0.000000 
0.195312 23.896541 0.000000 
0.195312 24.208776 0.000000 
0.585938 23.896541 0.000000 
0.585938 24.208776 0.000000 
0.195312 24.524805 0.000000 
0.195312 24.844315 0.000000 
0.585938 24.524805 0.000000 
0.585938 24.844315 0.000000 
0.195312 25.167458 0.000000 
0.195312 25.494352 0.000000 
0.585938 25.167458 0.000000 
0.585938 25.494352 0.000000 
0.195312 25.824917 0.000000 
0.195312 26.159381 0.000000 
0.585938 25.824917 0.000000 
0.585938 26.159381 0.000000 
0.195312 26.497871 0.000000 
0.195312 26.841516 0.000000 
0.585938 26.497871 0.000000 
0.585938 26.841516 0.000000 
0.195312 27.189074 0.000000 
0.195312 27.541682 0.000000 
0.585938 27.189074 0.000000 
0.585938 27.541682 0.000000 
0.195312 27.898518 0.000000 
0.195312 28.260907 0.000000 
0.585938 27.898518 0.000000 
0.585938 28.260907 0.000000 
0.195312 28.627599 0.000000 
0.195312 29.000853 0.000000 
0.585938 28.627599 0.000000 
0.585938 29.000853 0.000000 
0.195312 29.378555 0.000000 
0.195312 29.761388 0.000000 
0.585938 29.378555 0.000000 
0.585938 29.761388 0.000000 

POINT_DATA 256
SCALARS sigma_xx FLOAT 1
LOOKUP_TABLE default
0.000000
0.000000
0.000000
0.000000
0.000000
-0.000000
0.000000
-0.000000
0.000000
0.000000
0.000000
0.000000
-0.000000
-0.000000
-0.000000
-0.000000
-0.000000
-0.000000
-0.000000
-0.000000
-0.000000
-0.000000
-0.000000
-0.000000
-0.000000
-0.000000
-0.000000
-0.000000
0.000000
-0.000000
0.000000
-0.000000
-0.000000
-0.000000
-0.000000
-0.000000
0.000000
0.000000
0.000000
0.000000
0.000000
-0.000000
0.000000
-0.000000
-0.000000
0.000000
-0.000000
-0.000000
-0.000000
-0.000000
-0.000000
-0.000000
-0.000000
0.000000
-0.000000
-0.000000
0.000000
-0.000000
0.000000
-0.000000
-0.000000
-0.000000
-0.000000
-0.000000
-0.000000
-0.000000
-0.000000
-0.000000
0.000000
-0.000000
0.000000
-0.000000
-0.000000
-0.000000
-0.000000
-0.000000
-0.000000
-0.000000
-0.000000
-0.000000
-0.000000
-0.000000
-0.000000
-0.000000
-0.000000
-0.000000
-0.000000
-0.000000
-0.000000
-0.000000
-0.000000
-0.000000
-0.000000
-0.000000
-0.000000
-0.000000
-0.000000
-0.000000
-0.000000
-0.000000
-0.000000
-0.000000
-0.000000
-0.000000
0.000000
-0.000000
0.000000
-0.000000
-0.000000
-0.000000
-0.000000
-0.000000
0.000000
-0.000000
0.000000
-0.000000
-0.000000
-0.000000
-0.000000
-0.000000
-0.000000
-0.000000
-0.000000
-0.000000
-0.000000
-0.000000
-0.000000
-0.000000
-0.000000
0.000000
-0.000000
0.000000
-0.000000
-0.000000
-0.000000
0.000000
-0.000000
-0.000000
-0.000000
-0.000000
-0.000000
-0.000000
-0.000000
-0.000000
0.000000
-0.000000
0.000000
-0.000000
-0.000000
-0.000000
-0.000000
-0.000000
-0.000000
-0.000000
-0.000000
-0.000000
-0.000000
-0.000000
-0.000000
-0.000000
-0.000000
0.000000
-0.000000
0.000000
-0.000000
-0.000000
-0.000000
-0.000000
-0.000000
-0.000000
-0.000000
-0.000000
-0.000000
-0.000000
-0.000000
-0.000000
0.000000
-0.000000
-0.000000
-0.000000
-0.000000
-0.000000
-0.000000
-0.000000
-0.000000
-0.000000
-0.000000
-0.000000
-0.000000
-0.000000
-0.000000
-0.000000
-0.000000
-0.000000
-0.000000
0.000000
-0.000000
-0.000000
-0.000000
-0.000000
-0.000000
-0.000000
-0.000000
-0.000000
-0.000000
0.000000
-0.000000
0.000000
-0.000000
-0.000000
-0.000000
-0.000000
0.000000
-0.000000
0.000000
0.000000
-0.000000
-0.000000
-0.000000
-0.000000
-0.000000
-0.000000
-0.000000
-0.000000
0.000000
-0.000000
0.000000
-0.000000
0.000000
-0.000000
0.000000
-0.000000
-0.000000
-0.000000
-0.000000
0.000000
-0.000000
-0.000000
-0.000000
-0.000000
0.000000
-0.000000
0.000000
-0.000000
-0.000000
-0.000000
-0.000000
-0.000000
-0.000000
-0.000000
-0.000000
-0.000000
0.000000
0.000000
0.000000
0.000000

SCALARS sigma_yy FLOAT 1
LOOKUP_TABLE default
-20807.267534
-20807.267534
-20807.267534
-20807.267534
-20645.252001
-20458.128236
-20645.252001
-20458.128236
-20231.025901
-20094.970662
-20231.025901
-20094.970662
-19933.073989
-19790.243519
-19933.073989
-19790.243519
-19599.557531
-19433.285722
-19599.557531
-19433.285722
-19271.387833
-19128.813738
-19271.387833
-19128.813738
-18948.576413
-18784.297259
-18948.576413
-18784.297259
-18610.339034
-18463.923240
-18610.339034
-18463.923240
-18285.466758
-18133.808887
-18285.466758
-18133.808887
-17955.490000
-17816.688339
-17955.490000
-17816.688339
-17634.803637
-17483.971429
-17634.803637
-17483.971429
-17297.354925
-17161.088438
-17297.354925
-17161.088438
-16974.951972
-16823.041158
-16974.951972
-16823.041158
-16632.416334
-16487.213950
-16632.416334
-16487.213950
-16312.017461
-16174.287455
-16312.017461
-16174.287455
-15985.879993
-15842.746965
-15985.879993
-15842.746965
-15665.070500
-15502.472524
-15665.070500
-15502.472524
-15334.406296
-15172.245291
-15334.406296
-15172.245291
-15008.397594
-14848.376298
-15008.397594
-14848.376298
-14691.130272
-14523.003911
-14691.130272
-14523.003911
-14348.525733
-14201.310537
-14348.525733
-14201.310537
-14018.314859
-13864.778016
-14018.314859
-13864.778016
-13681.219314
-13553.092407
-13681.219314
-13553.092407
-13369.137221
-13207.768560
-13369.137221
-13207.768560
-13044.507050
-12882.245497
-13044.507050
-12882.245497
-12720.706731
-12560.968017
-12720.706731
-12560.968017
-12385.340923
-12227.979336
-12385.340923
-12227.979336
-12048.424217
-11890.187277
-12048.424217
-11890.187277
-11716.001764
-11580.354744
-11716.001764
-11580.354744
-11396.713257
-11246.526792
-11396.713257
-11246.526792
-11070.413937
-10912.653143
-11070.413937
-10912.653143
-10736.589744
-10597.153080
-10736.589744
-10597.153080
-10407.829540
-10274.071509
-10407.829540
-10274.071509
-10074.020672
-9934.996905
-10074.020672
-9934.996905
-9743.862050
-9601.070044
-9743.862050
-9601.070044
-9430.376856
-9275.040311
-9430.376856
-9275.040311
-9109.718456
-8941.399097
-9109.718456
-8941.399097
-8779.667149
-8618.194791
-8779.667149
-8618.194791
-8430.230908
-8295.938179
-8430.230908
-8295.938179
-8118.180055
-7943.755899
-8118.180055
-7943.755899
-7803.690059
-7624.113604
-7803.690059
-7624.113604
-7473.963967
-7287.314772
-7473.963967
-7287.314772
-7140.829410
-6975.018506
-7140.829410
-6975.018506
-6804.490973
-6653.737963
-6804.490973
-6653.737963
-6466.150072
-6322.403710
-6466.150072
-6322.403710
-6157.988088
-5984.693061
-6157.988088
-5984.693061
-5832.115655
-5651.889994
-5832.115655
-5651.889994
-5497.445579
-5344.127089
-5497.445579
-5344.127089
-5156.000014
-5016.460911
-5156.000014
-5016.460911
-4818.894210
-4700.866065
-4818.894210
-4700.866065
-4490.405695
-4367.074137
-4490.405695
-4367.074137
-4177.479671
-4019.316732
-4177.479671
-4019.316732
-3848.040393
-3688.498751
-3848.040393
-3688.498751
-3535.950428
-3368.642999
-3535.950428
-3368.642999
-3190.219400
-3038.823127
-3190.219400
-3038.823127
-2871.805778
-2723.798053
-2871.805778
-2723.798053
-2524.780487
-2386.947719
-2524.780487
-2386.947719
-2199.760386
-2062.444302
-2199.760386
-2062.444302
-1880.015819
-1748.780774
-1880.015819
-1748.780774
-1545.443961
-1388.641705
-1545.443961
-1388.641705
-1220.769785
-1067.686324
-1220.769785
-1067.686324
-896.061235
-740.644285
-896.061235
-740.644285
-586.531879
-403.834845
-586.531879
-403.834845
-252.794387
-65.678148
-252.794387
-65.678148

SCALARS sigma_zz FLOAT 1
LOOKUP_TABLE default
0.000000
0.000000
0.000000
0.000000
0.000000
0.000000
0.000000
0.000000
0.000000
0.000000
0.000000
0.000000
0.000000
0.000000
0.000000
0.000000
0.000000
0.000000
0.000000
0.000000
0.000000
0.000000
0.000000
0.000000
0.000000
0.000000
0.000000
0.000000
0.000000
0.000000
0.000000
0.000000
0.000000
0.000000
0.000000
0.000000
0.000000
0.000000
0.000000
0.000000
0.000000
0.000000
0.000000
0.000000
0.000000
0.000000
0.000000
0.000000
0.000000
0.000000
0.000000
0.000000
0.000000
0.000000
0.000000
0.000000
0.000000
0.000000
0.000000
0.000000
0.000000
0.000000
0.000000
0.000000
0.000000
0.000000
0.000000
0.000000
0.000000
0.000000
0.000000
0.000000
0.000000
0.000000
0.000000
0.000000
0.000000
0.000000
0.000000
0.000000
0.000000
0.000000
0.000000
0.000000
0.000000
0.000000
0.000000
0.000000
0.000000
0.000000
0.000000
0.000000
0.000000
0.000000
0.000000
0.000000
0.000000
0.000000
0.000000
0.000000
0.000000
0.000000
0.000000
0.000000
0.000000
0.000000
0.000000
0.000000
0.000000
0.000000
0.000000
0.000000
0.000000
0.000000
0.000000
0.000000
0.000000
0.000000
0.000000
0.000000
0.000000
0.000000
0.000000
0.000000
0.000000
0.000000
0.000000
0.000000
0.000000
0.000000
0.000000
0.000000
0.000000
0.000000
0.000000
0.000000
0.000000
0.000000
0.000000
0.000000
0.000000
0.000000
0.000000
0.000000
0.000000
0.000000
0.000000
0.000000
0.000000
0.000000
0.000000
0.000000
0.000000
0.000000
0.000000
0.000000
0.000000
0.000000
0.000000
0.000000
0.000000
0.000000
0.000000
0.000000
0.000000
0.000000
0.000000
0.000000
0.000000
0.000000
0.000000
0.000000
0.000000
0.000000
0.000000
0.000000
0.000000
0.000000
0.000000
0.000000
0.000000
0.000000
0.000000
0.000000
0.000000
0.000000
0.000000
0.000000
0.000000
0.000000
0.000000
0.000000
0.000000
0.000000
0.000000
0.000000
0.000000
0.000000
0.000000
0.000000
0.000000
0.000000
0.000000
0.000000
0.000000
0.000000
0.000000
0.000000
0.000000
0.000000
0.000000
0.000000
0.000000
0.000000
0.000000
0.000000
0.000000
0.000000
0.000000
0.000000
0.000000
0.000000
0.000000
0.000000
0.000000
0.000000
0.000000
0.000000
0.000000
0.000000
0.000000
0.000000
0.000000
0.000000
0.000000
0.000000
0.000000
0.000000
0.000000
0.000000
0.000000
0.000000
0.000000
0.000000
0.000000
0.000000
0.000000
0.000000
0.000000
0.000000
0.000000
0.000000
0.000000
0.000000
0.000000
0.000000

SCALARS sigma_xy FLOAT 1
LOOKUP_TABLE default
0.000000
0.000000
0.000000
0.000000
0.000000
-0.000000
0.000000
-0.000000
0.000000
0.000000
0.000000
0.000000
0.000000
0.000000
0.000000
0.000000
0.000000
0.000000
0.000000
0.000000
-0.000000
-0.000000
-0.000000
-0.000000
-0.000000
-0.000000
-0.000000
-0.000000
0.000000
0.000000
0.000000
0.000000
0.000000
0.000000
0.000000
0.000000
0.000000
0.000000
0.000000
0.000000
0.000000
0.000000
0.000000
0.000000
0.000000
0.000000
0.000000
-0.000000
-0.000000
-0.000000
-0.000000
-0.000000
-0.000000
0.000000
-0.000000
0.000000
0.000000
-0.000000
0.000000
-0.000000
0.000000
0.000000
0.000000
0.000000
0.000000
0.000000
0.000000
0.000000
0.000000
-0.000000
0.000000
-0.000000
-0.000000
-0.000000
-0.000000
-0.000000
-0.000000
-0.000000
-0.000000
-0.000000
0.000000
0.000000
0.000000
0.000000
0.000000
0.000000
0.000000
0.000000
-0.000000
-0.000000
-0.000000
-0.000000
-0.000000
-0.000000
-0.000000
-0.000000
-0.000000
-0.000000
-0.000000
-0.000000
0.000000
0.000000
0.000000
0.000000
0.000000
0.000000
0.000000
0.000000
-0.000000
0.000000
-0.000000
0.000000
0.000000
-0.000000
0.000000
-0.000000
-0.000000
0.000000
-0.000000
0.000000
0.000000
0.000000
0.000000
0.000000
0.000000
-0.000000
0.000000
-0.000000
-0.000000
0.000000
-0.000000
0.000000
0.000000
-0.000000
0.000000
0.000000
-0.000000
-0.000000
-0.000000
-0.000000
-0.000000
0.000000
-0.000000
0.000000
0.000000
0.000000
0.000000
0.000000
0.000000
0.000000
0.000000
0.000000
-0.000000
-0.000000
-0.000000
-0.000000
0.000000
0.000000
0.000000
0.000000
0.000000
0.000000
-0.000000
0.000000
-0.000000
0.000000
-0.000000
0.000000
0.000000
0.000000
0.000000
0.000000
0.000000
0.000000
0.000000
0.000000
0.000000
-0.000000
-0.000000
-0.000000
-0.000000
0.000000
-0.000000
0.000000
0.000000
-0.000000
0.000000
-0.000000
-0.000000
-0.000000
-0.000000
-0.000000
0.000000
0.000000
0.000000
0.000000
0.000000
0.000000
0.000000
0.000000
-0.000000
-0.000000
-0.000000
-0.000000
-0.000000
0.000000
-0.000000
0.000000
0.000000
0.000000
0.000000
0.000000
0.000000
-0.000000
0.000000
0.000000
-0.000000
0.000000
-0.000000
0.000000
-0.000000
-0.000000
-0.000000
-0.000000
0.000000
0.000000
0.000000
0.000000
0.000000
-0.000000
0.000000
-0.000000
-0.000000
-0.000000
-0.000000
0.000000
0.000000
0.000000
0.000000
0.000000
0.000000
0.000000
0.000000
0.000000
-0.000000
-0.000000
-0.000000
-0.000000
0.000000
-0.000000
-0.000000
-0.000000
0.000000
0.000000
0.000000
0.000000

SCALARS sigma_yz FLOAT 1
LOOKUP_TABLE default
0.000000
0.000000
0.000000
0.000000
0.000000
0.000000
0.000000
0.000000
0.000000
0.000000
0.000000
0.000000
0.000000
0.000000
0.000000
0.000000
0.000000
0.000000
0.000000
0.000000
0.000000
0.000000
0.000000
0.000000
0.000000
0.000000
0.000000
0.000000
0.000000
0.000000
0.000000
0.000000
0.000000
0.000000
0.000000
0.000000
0.000000
0.000000
0.000000
0.000000
0.000000
0.000000
0.000000
0.000000
0.000000
0.000000
0.000000
0.000000
0.000000
0.000000
0.000000
0.000000
0.000000
0.000000
0.000000
0.000000
0.000000
0.000000
0.000000
0.000000
0.000000
0.000000
0.000000
0.000000
0.000000
0.000000
0.000000
0.000000
0.000000
0.000000
0.000000
0.000000
0.000000
0.000000
0.000000
0.000000
0.000000
0.000000
0.000000
0.000000
0.000000
0.000000
0.000000
0.000000
0.000000
0.000000
0.000000
0.000000
0.000000
0.000000
0.000000
0.000000
0.000000
0.000000
0.000000
0.000000
0.000000
0.000000
0.000000
0.000000
0.000000
0.000000
0.000000
0.000000
0.000000
0.000000
0.000000
0.000000
0.000000
0.000000
0.000000
0.000000
0.000000
0.000000
0.000000
0.000000
0.000000
0.000000
0.000000
0.000000
0.000000
0.000000
0.000000
0.000000
0.000000
0.000000
0.000000
0.000000
0.000000
0.000000
0.000000
0.000000
0.000000
0.000000
0.000000
0.000000
0.000000
0.000000
0.000000
0.000000
0.000000
0.000000
0.000000
0.000000
0.000000
0.000000
0.000000
0.000000
0.000000
0.000000
0.000000
0.000000
0.000000
0.000000
0.000000
0.000000
0.000000
0.000000
0.000000
0.000000
0.000000
0.000000
0.000000
0.000000
0.000000
0.000000
0.000000
0.000000
0.000000
0.000000
0.000000
0.000000
0.000000
0.000000
0.000000
0.000000
0.000000
0.000000
0.000000
0.000000
0.000000
0.000000
0.000000
0.000000
0.000000
0.000000
0.000000
0.000000
0.000000
0.000000
0.000000
0.000000
0.000000
0.000000
0.000000
0.000000
0.000000
0.000000
0.000000
0.000000
0.000000
0.000000
0.000000
0.000000
0.000000
0.000000
0.000000
0.000000
0.000000
0.000000
0.000000
0.000000
0.000000
0.000000
0.000000
0.000000
0.000000
0.000000
0.000000
0.000000
0.000000
0.000000
0.000000
0.000000
0.000000
0.000000
0.000000
0.000000
0.000000
0.000000
0.000000
0.000000
0.000000
0.000000
0.000000
0.000000
0.000000
0.000000
0.000000
0.000000
0.000000
0.000000
0.000000
0.000000
0.000000
0.000000
0.000000
0.000000
0.000000
0.000000
0.000000
0.000000
0.000000
0.000000
0.000000
0.000000

SCALARS sigma_zx FLOAT 1
LOOKUP_TABLE default
0.000000
0.000000
0.000000
0.000000
0.000000
0.000000
0.000000
0.000000
0.000000
0.000000
0.000000
0.000000
0.000000
0.000000
0.000000
0.000000
0.000000
0.000000
0.000000
0.000000
0.000000
0.000000
0.000000
0.000000
0.000000
0.000000
0.000000
0.000000
0.000000
0.000000
0.000000
0.000000
0.000000
0.000000
0.000000
0.000000
0.000000
0.000000
0.000000
0.000000
0.000000
0.000000
0.000000
0.000000
0.000000
0.000000
0.000000
0.000000
0.000000
0.000000
0.000000
0.000000
0.000000
0.000000
0.000000
0.000000
0.000000
0.000000
0.000000
0.000000
0.000000
0.000000
0.000000
0.000000
0.000000
0.000000
0.000000
0.000000
0.000000
0.000000
0.000000
0.000000
0.000000
0.000000
0.000000
0.000000
0.000000
0.000000
0.000000
0.000000
0.000000
0.000000
0.000000
0.000000
0.000000
0.000000
0.000000
0.000000
0.000000
0.000000
0.000000
0.000000
0.000000
0.000000
0.000000
0.000000
0.000000
0.000000
0.000000
0.000000
0.000000
0.000000
0.000000
0.000000
0.000000
0.000000
0.000000
0.000000
0.000000
0.000000
0.000000
0.000000
0.000000
0.000000
0.000000
0.000000
0.000000
0.000000
0.000000
0.000000
0.000000
0.000000
0.000000
0.000000
0.000000
0.000000
0.000000
0.000000
0.000000
0.000000
0.000000
0.000000
0.000000
0.000000
0.000000
0.000000
0.000000
0.000000
0.000000
0.000000
0.000000
0.000000
0.000000
0.000000
0.000000
0.000000
0.000000
0.000000
0.000000
0.000000
0.000000
0.000000
0.000000
0.000000
0.000000
0.000000
0.000000
0.000000
0.000000
0.000000
0.000000
0.000000
0.000000
0.000000
0.000000
0.000000
0.000000
0.000000
0.000000
0.000000
0.000000
0.000000
0.000000
0.000000
0.000000
0.000000
0.000000
0.000000
0.000000
0.000000
0.000000
0.000000
0.000000
0.000000
0.000000
0.000000
0.000000
0.000000
0.000000
0.000000
0.000000
0.000000
0.000000
0.000000
0.000000
0.000000
0.000000
0.000000
0.000000
0.000000
0.000000
0.000000
0.000000
0.000000
0.000000
0.000000
0.000000
0.000000
0.000000
0.000000
0.000000
0.000000
0.000000
0.000000
0.000000
0.000000
0.000000
0.000000
0.000000
0.000000
0.000000
0.000000
0.000000
0.000000
0.000000
0.000000
0.000000
0.000000
0.000000
0.000000
0.000000
0.000000
0.000000
0.000000
0.000000
0.000000
0.000000
0.000000
0.000000
0.000000
0.000000
0.000000
0.000000
0.000000
0.000000
0.000000
0.000000
0.000000
0.000000
0.000000
0.000000
0.000000
0.000000
0.000000
0.000000
0.000000

SCALARS u_x FLOAT 1
LOOKUP_TABLE default
0.000000
0.000000
0.000000
0.000000
0.000000
0.000000
0.000000
0.000000
0.000000
0.000000
0.000000
0.000000
0.000000
0.000000
0.000000
0.000000
0.000000
0.000000
0.000000
0.000000
0.000000
0.000000
0.000000
0.000000
0.000000
0.000000
0.000000
0.000000
0.000000
0.000000
0.000000
0.000000
0.000000
0.000000
0.000000
0.000000
0.000000
0.000000
0.000000
0.000000
0.000000
0.000000
0.000000
0.000000
0.000000
0.000000
0.000000
0.000000
0.000000
0.000000
0.000000
0.000000
0.000000
0.000000
0.000000
0.000000
0.000000
0.000000
0.000000
0.000000
0.000000
0.000000
0.000000
0.000000
0.000000
0.000000
0.000000
0.000000
0.000000
0.000000
0.000000
0.000000
0.000000
0.000000
0.000000
0.000000
0.000000
0.000000
0.000000
0.000000
0.000000
0.000000
0.000000
0.000000
0.000000
0.000000
0.000000
0.000000
0.000000
0.000000
0.000000
0.000000
0.000000
0.000000
0.000000
0.000000
0.000000
0.000000
0.000000
0.000000
0.000000
0.000000
0.000000
0.000000
0.000000
0.000000
0.000000
0.000000
0.000000
0.000000
0.000000
0.000000
0.000000
0.000000
0.000000
0.000000
0.000000
0.000000
0.000000
0.000000
0.000000
0.000000
0.000000
0.000000
0.000000
0.000000
0.000000
0.000000
0.000000
0.000000
0.000000
0.000000
0.000000
0.000000
0.000000
0.000000
0.000000
0.000000
0.000000
0.000000
0.000000
0.000000
0.000000
0.000000
0.000000
0.000000
0.000000
0.000000
0.000000
0.000000
0.000000
0.000000
0.000000
0.000000
0.000000
0.000000
0.000000
0.000000
0.000000
0.000000
0.000000
0.000000
0.000000
0.000000
0.000000
0.000000
0.000000
0.000000
0.000000
0.000000
0.000000
0.000000
0.000000
0.000000
0.000000
0.000000
0.000000
0.000000
0.000000
0.000000
0.000000
0.000000
0.000000
0.000000
0.000000
0.000000
0.000000
0.000000
0.000000
0.000000
0.000000
0.000000
0.000000
0.000000
0.000000
0.000000
0.000000
0.000000
0.000000
0.000000
0.000000
0.000000
0.000000
0.000000
0.000000
0.000000
0.000000
0.000000
0.000000
0.000000
0.000000
0.000000
0.000000
0.000000
0.000000
0.000000
0.000000
0.000000
0.000000
0.000000
0.000000
0.000000
0.000000
0.000000
0.000000
0.000000
0.000000
0.000000
0.000000
0.000000
0.000000
0.000000
0.000000
0.000000
0.000000
0.000000
0.000000
0.000000
0.000000
0.000000
0.000000
0.000000
0.000000
0.000000
0.000000
0.000000
0.000000
0.000000
0.000000
0.000000
0.000000
0.000000
0.000000
0.000000
0.000000
0.000000

SCALARS u_y FLOAT 1
LOOKUP_TABLE default
-0.113561
-0.340684
-0.113561
-0.340684
-0.567581
-0.793736
-0.567581
-0.793736
-1.019164
-1.243849
-1.019164
-1.243849
-1.468019
-1.691588
-1.468019
-1.691588
-1.914521
-2.136723
-1.914521
-2.136723
-2.358298
-2.579251
-2.358298
-2.579251
-2.799571
-3.019169
-2.799571
-3.019169
-3.238076
-3.456323
-3.238076
-3.456323
-3.673896
-3.890762
-3.673896
-3.890762
-4.106902
-4.322368
-4.106902
-4.322368
-4.537111
-4.751143
-4.537111
-4.751143
-4.964417
-5.176960
-4.964417
-5.176960
-5.388741
-5.599770
-5.388741
-5.599770
-5.809972
-6.019430
-5.809972
-6.019430
-6.228072
-6.435968
-6.228072
-6.435968
-6.643101
-6.849403
-6.643101
-6.849403
-7.054882
-7.259476
-7.054882
-7.259476
-7.463322
-7.666206
-7.463322
-7.666206
-7.868283
-8.069485
-7.868283
-8.069485
-8.269872
-8.469360
-8.269872
-8.469360
-8.667863
-8.865593
-8.667863
-8.865593
-9.062240
-9.258050
-9.062240
-9.258050
-9.452805
-9.646723
-9.452805
-9.646723
-9.839675
-10.031597
-9.839675
-10.031597
-10.222556
-10.412440
-10.222556
-10.412440
-10.601408
-10.789329
-10.601408
-10.789329
-10.976144
-11.161976
-10.976144
-11.161976
-11.346542
-11.530081
-11.346542
-11.530081
-11.712467
-11.893831
-11.712467
-11.893831
-12.074084
-12.253143
-12.074084
-12.253143
-12.431043
-12.607678
-12.431043
-12.607678
-12.783167
-12.957434
-12.783167
-12.957434
-13.130392
-13.302238
-13.130392
-13.302238
-13.472629
-13.641797
-13.472629
-13.641797
-13.809658
-13.975964
-13.809658
-13.975964
-14.141154
-14.304800
-14.141154
-14.304800
-14.467197
-14.628070
-14.467197
-14.628070
-14.787486
-14.945439
-14.787486
-14.945439
-15.101761
-15.256614
-15.101761
-15.256614
-15.410009
-15.561581
-15.410009
-15.561581
-15.711715
-15.860079
-15.711715
-15.860079
-16.006931
-16.152000
-16.006931
-16.152000
-16.295103
-16.436847
-16.295103
-16.436847
-16.576410
-16.714398
-16.576410
-16.714398
-16.850296
-16.984355
-16.850296
-16.984355
-17.116419
-17.246506
-17.116419
-17.246506
-17.374532
-17.500447
-17.374532
-17.500447
-17.624088
-17.745946
-17.624088
-17.745946
-17.865113
-17.982316
-17.865113
-17.982316
-18.096807
-18.209296
-18.096807
-18.209296
-18.319150
-18.426400
-18.319150
-18.426400
-18.531362
-18.633269
-18.531362
-18.633269
-18.732671
-18.828981
-18.732671
-18.828981
-18.922893
-19.013873
-18.922893
-19.013873
-19.101464
-19.186143
-19.101464
-19.186143
-19.267522
-19.345911
-19.267522
-19.345911
-19.420508
-19.491622
-19.420508
-19.491622
-19.559105
-19.622836
-19.559105
-19.622836
-19.682895
-19.739057
-19.682895
-19.739057
-19.791192
-19.838172
-19.791192
-19.838172
-19.881238
-19.919255
-19.881238
-19.919255
-19.953045
-19.981280
-19.953045
-19.981280
-20.005213
-20.022585
-20.005213
-20.022585
-20.035507
-20.043300
-20.035507
-20.043300

